V -t * -v 1.0a5 -a 0
A -t * -n 1 -p 0 -o 0x7fffffff -c 30 -a 1
A -t * -h 1 -m 1073741823 -s 0
n -t * -a 0 -s 0 -S UP -v circle -c black -i black
n -t * -a 1 -s 1 -S UP -v circle -c black -i black
n -t * -a 2 -s 2 -S UP -v circle -c black -i black
n -t * -a 3 -s 3 -S UP -v circle -c black -i black
l -t * -s 0 -d 2 -S UP -r 2000000 -D 0.01 -c black
l -t * -s 1 -d 2 -S UP -r 2000000 -D 0.01 -c black
l -t * -s 2 -d 3 -S UP -r 200000 -D 0.01 -c black
+ -t 0.6 -s 1 -d 2 -p tcp -e 40 -c 0 -i 0 -a 0 -x {1.0 3.1 0 ------- null}
- -t 0.6 -s 1 -d 2 -p tcp -e 40 -c 0 -i 0 -a 0 -x {1.0 3.1 0 ------- null}
h -t 0.6 -s 1 -d 2 -p tcp -e 40 -c 0 -i 0 -a 0 -x {1.0 3.1 -1 ------- null}
r -t 0.61016 -s 1 -d 2 -p tcp -e 40 -c 0 -i 0 -a 0 -x {1.0 3.1 0 ------- null}
+ -t 0.61016 -s 2 -d 3 -p tcp -e 40 -c 0 -i 0 -a 0 -x {1.0 3.1 0 ------- null}
- -t 0.61016 -s 2 -d 3 -p tcp -e 40 -c 0 -i 0 -a 0 -x {1.0 3.1 0 ------- null}
h -t 0.61016 -s 2 -d 3 -p tcp -e 40 -c 0 -i 0 -a 0 -x {1.0 3.1 -1 ------- null}
r -t 0.62176 -s 2 -d 3 -p tcp -e 40 -c 0 -i 0 -a 0 -x {1.0 3.1 0 ------- null}
+ -t 0.62176 -s 3 -d 2 -p ack -e 40 -c 0 -i 1 -a 0 -x {3.1 1.0 0 ------- null}
- -t 0.62176 -s 3 -d 2 -p ack -e 40 -c 0 -i 1 -a 0 -x {3.1 1.0 0 ------- null}
h -t 0.62176 -s 3 -d 2 -p ack -e 40 -c 0 -i 1 -a 0 -x {3.1 1.0 -1 ------- null}
r -t 0.63336 -s 3 -d 2 -p ack -e 40 -c 0 -i 1 -a 0 -x {3.1 1.0 0 ------- null}
+ -t 0.63336 -s 2 -d 1 -p ack -e 40 -c 0 -i 1 -a 0 -x {3.1 1.0 0 ------- null}
- -t 0.63336 -s 2 -d 1 -p ack -e 40 -c 0 -i 1 -a 0 -x {3.1 1.0 0 ------- null}
h -t 0.63336 -s 2 -d 1 -p ack -e 40 -c 0 -i 1 -a 0 -x {3.1 1.0 -1 ------- null}
r -t 0.64352 -s 2 -d 1 -p ack -e 40 -c 0 -i 1 -a 0 -x {3.1 1.0 0 ------- null}
+ -t 0.64352 -s 1 -d 2 -p tcp -e 1040 -c 0 -i 2 -a 0 -x {1.0 3.1 1 ------- null}
- -t 0.64352 -s 1 -d 2 -p tcp -e 1040 -c 0 -i 2 -a 0 -x {1.0 3.1 1 ------- null}
h -t 0.64352 -s 1 -d 2 -p tcp -e 1040 -c 0 -i 2 -a 0 -x {1.0 3.1 -1 ------- null}
+ -t 0.64352 -s 1 -d 2 -p tcp -e 1040 -c 0 -i 3 -a 0 -x {1.0 3.1 2 ------- null}
- -t 0.64768 -s 1 -d 2 -p tcp -e 1040 -c 0 -i 3 -a 0 -x {1.0 3.1 2 ------- null}
h -t 0.64768 -s 1 -d 2 -p tcp -e 1040 -c 0 -i 3 -a 0 -x {1.0 3.1 -1 ------- null}
r -t 0.65768 -s 1 -d 2 -p tcp -e 1040 -c 0 -i 2 -a 0 -x {1.0 3.1 1 ------- null}
+ -t 0.65768 -s 2 -d 3 -p tcp -e 1040 -c 0 -i 2 -a 0 -x {1.0 3.1 1 ------- null}
- -t 0.65768 -s 2 -d 3 -p tcp -e 1040 -c 0 -i 2 -a 0 -x {1.0 3.1 1 ------- null}
h -t 0.65768 -s 2 -d 3 -p tcp -e 1040 -c 0 -i 2 -a 0 -x {1.0 3.1 -1 ------- null}
r -t 0.66184 -s 1 -d 2 -p tcp -e 1040 -c 0 -i 3 -a 0 -x {1.0 3.1 2 ------- null}
+ -t 0.66184 -s 2 -d 3 -p tcp -e 1040 -c 0 -i 3 -a 0 -x {1.0 3.1 2 ------- null}
- -t 0.69928 -s 2 -d 3 -p tcp -e 1040 -c 0 -i 3 -a 0 -x {1.0 3.1 2 ------- null}
h -t 0.69928 -s 2 -d 3 -p tcp -e 1040 -c 0 -i 3 -a 0 -x {1.0 3.1 -1 ------- null}
+ -t 0.707790344 -s 0 -d 2 -p tcp -e 40 -c 0 -i 4 -a 0 -x {0.0 3.0 0 ------- null}
- -t 0.707790344 -s 0 -d 2 -p tcp -e 40 -c 0 -i 4 -a 0 -x {0.0 3.0 0 ------- null}
h -t 0.707790344 -s 0 -d 2 -p tcp -e 40 -c 0 -i 4 -a 0 -x {0.0 3.0 -1 ------- null}
r -t 0.70928 -s 2 -d 3 -p tcp -e 1040 -c 0 -i 2 -a 0 -x {1.0 3.1 1 ------- null}
+ -t 0.70928 -s 3 -d 2 -p ack -e 40 -c 0 -i 5 -a 0 -x {3.1 1.0 1 ------- null}
- -t 0.70928 -s 3 -d 2 -p ack -e 40 -c 0 -i 5 -a 0 -x {3.1 1.0 1 ------- null}
h -t 0.70928 -s 3 -d 2 -p ack -e 40 -c 0 -i 5 -a 0 -x {3.1 1.0 -1 ------- null}
r -t 0.717950344 -s 0 -d 2 -p tcp -e 40 -c 0 -i 4 -a 0 -x {0.0 3.0 0 ------- null}
+ -t 0.717950344 -s 2 -d 3 -p tcp -e 40 -c 0 -i 4 -a 0 -x {0.0 3.0 0 ------- null}
r -t 0.72088 -s 3 -d 2 -p ack -e 40 -c 0 -i 5 -a 0 -x {3.1 1.0 1 ------- null}
+ -t 0.72088 -s 2 -d 1 -p ack -e 40 -c 0 -i 5 -a 0 -x {3.1 1.0 1 ------- null}
- -t 0.72088 -s 2 -d 1 -p ack -e 40 -c 0 -i 5 -a 0 -x {3.1 1.0 1 ------- null}
h -t 0.72088 -s 2 -d 1 -p ack -e 40 -c 0 -i 5 -a 0 -x {3.1 1.0 -1 ------- null}
r -t 0.73104 -s 2 -d 1 -p ack -e 40 -c 0 -i 5 -a 0 -x {3.1 1.0 1 ------- null}
+ -t 0.73104 -s 1 -d 2 -p tcp -e 1040 -c 0 -i 6 -a 0 -x {1.0 3.1 3 ------- null}
- -t 0.73104 -s 1 -d 2 -p tcp -e 1040 -c 0 -i 6 -a 0 -x {1.0 3.1 3 ------- null}
h -t 0.73104 -s 1 -d 2 -p tcp -e 1040 -c 0 -i 6 -a 0 -x {1.0 3.1 -1 ------- null}
+ -t 0.73104 -s 1 -d 2 -p tcp -e 1040 -c 0 -i 7 -a 0 -x {1.0 3.1 4 ------- null}
- -t 0.7352 -s 1 -d 2 -p tcp -e 1040 -c 0 -i 7 -a 0 -x {1.0 3.1 4 ------- null}
h -t 0.7352 -s 1 -d 2 -p tcp -e 1040 -c 0 -i 7 -a 0 -x {1.0 3.1 -1 ------- null}
- -t 0.74088 -s 2 -d 3 -p tcp -e 40 -c 0 -i 4 -a 0 -x {0.0 3.0 0 ------- null}
h -t 0.74088 -s 2 -d 3 -p tcp -e 40 -c 0 -i 4 -a 0 -x {0.0 3.0 -1 ------- null}
r -t 0.7452 -s 1 -d 2 -p tcp -e 1040 -c 0 -i 6 -a 0 -x {1.0 3.1 3 ------- null}
+ -t 0.7452 -s 2 -d 3 -p tcp -e 1040 -c 0 -i 6 -a 0 -x {1.0 3.1 3 ------- null}
- -t 0.7452 -s 2 -d 3 -p tcp -e 1040 -c 0 -i 6 -a 0 -x {1.0 3.1 3 ------- null}
h -t 0.7452 -s 2 -d 3 -p tcp -e 1040 -c 0 -i 6 -a 0 -x {1.0 3.1 -1 ------- null}
r -t 0.74936 -s 1 -d 2 -p tcp -e 1040 -c 0 -i 7 -a 0 -x {1.0 3.1 4 ------- null}
+ -t 0.74936 -s 2 -d 3 -p tcp -e 1040 -c 0 -i 7 -a 0 -x {1.0 3.1 4 ------- null}
r -t 0.75088 -s 2 -d 3 -p tcp -e 1040 -c 0 -i 3 -a 0 -x {1.0 3.1 2 ------- null}
+ -t 0.75088 -s 3 -d 2 -p ack -e 40 -c 0 -i 8 -a 0 -x {3.1 1.0 2 ------- null}
- -t 0.75088 -s 3 -d 2 -p ack -e 40 -c 0 -i 8 -a 0 -x {3.1 1.0 2 ------- null}
h -t 0.75088 -s 3 -d 2 -p ack -e 40 -c 0 -i 8 -a 0 -x {3.1 1.0 -1 ------- null}
r -t 0.75248 -s 2 -d 3 -p tcp -e 40 -c 0 -i 4 -a 0 -x {0.0 3.0 0 ------- null}
+ -t 0.75248 -s 3 -d 2 -p ack -e 40 -c 0 -i 9 -a 0 -x {3.0 0.0 0 ------- null}
- -t 0.75248 -s 3 -d 2 -p ack -e 40 -c 0 -i 9 -a 0 -x {3.0 0.0 0 ------- null}
h -t 0.75248 -s 3 -d 2 -p ack -e 40 -c 0 -i 9 -a 0 -x {3.0 0.0 -1 ------- null}
r -t 0.76248 -s 3 -d 2 -p ack -e 40 -c 0 -i 8 -a 0 -x {3.1 1.0 2 ------- null}
+ -t 0.76248 -s 2 -d 1 -p ack -e 40 -c 0 -i 8 -a 0 -x {3.1 1.0 2 ------- null}
- -t 0.76248 -s 2 -d 1 -p ack -e 40 -c 0 -i 8 -a 0 -x {3.1 1.0 2 ------- null}
h -t 0.76248 -s 2 -d 1 -p ack -e 40 -c 0 -i 8 -a 0 -x {3.1 1.0 -1 ------- null}
r -t 0.76408 -s 3 -d 2 -p ack -e 40 -c 0 -i 9 -a 0 -x {3.0 0.0 0 ------- null}
+ -t 0.76408 -s 2 -d 0 -p ack -e 40 -c 0 -i 9 -a 0 -x {3.0 0.0 0 ------- null}
- -t 0.76408 -s 2 -d 0 -p ack -e 40 -c 0 -i 9 -a 0 -x {3.0 0.0 0 ------- null}
h -t 0.76408 -s 2 -d 0 -p ack -e 40 -c 0 -i 9 -a 0 -x {3.0 0.0 -1 ------- null}
r -t 0.77264 -s 2 -d 1 -p ack -e 40 -c 0 -i 8 -a 0 -x {3.1 1.0 2 ------- null}
+ -t 0.77264 -s 1 -d 2 -p tcp -e 1040 -c 0 -i 10 -a 0 -x {1.0 3.1 5 ------- null}
- -t 0.77264 -s 1 -d 2 -p tcp -e 1040 -c 0 -i 10 -a 0 -x {1.0 3.1 5 ------- null}
h -t 0.77264 -s 1 -d 2 -p tcp -e 1040 -c 0 -i 10 -a 0 -x {1.0 3.1 -1 ------- null}
+ -t 0.77264 -s 1 -d 2 -p tcp -e 1040 -c 0 -i 11 -a 0 -x {1.0 3.1 6 ------- null}
r -t 0.77424 -s 2 -d 0 -p ack -e 40 -c 0 -i 9 -a 0 -x {3.0 0.0 0 ------- null}
+ -t 0.77424 -s 0 -d 2 -p tcp -e 1040 -c 0 -i 12 -a 0 -x {0.0 3.0 1 ------- null}
- -t 0.77424 -s 0 -d 2 -p tcp -e 1040 -c 0 -i 12 -a 0 -x {0.0 3.0 1 ------- null}
h -t 0.77424 -s 0 -d 2 -p tcp -e 1040 -c 0 -i 12 -a 0 -x {0.0 3.0 -1 ------- null}
- -t 0.7768 -s 1 -d 2 -p tcp -e 1040 -c 0 -i 11 -a 0 -x {1.0 3.1 6 ------- null}
h -t 0.7768 -s 1 -d 2 -p tcp -e 1040 -c 0 -i 11 -a 0 -x {1.0 3.1 -1 ------- null}
- -t 0.7868 -s 2 -d 3 -p tcp -e 1040 -c 0 -i 7 -a 0 -x {1.0 3.1 4 ------- null}
h -t 0.7868 -s 2 -d 3 -p tcp -e 1040 -c 0 -i 7 -a 0 -x {1.0 3.1 -1 ------- null}
r -t 0.7868 -s 1 -d 2 -p tcp -e 1040 -c 0 -i 10 -a 0 -x {1.0 3.1 5 ------- null}
+ -t 0.7868 -s 2 -d 3 -p tcp -e 1040 -c 0 -i 10 -a 0 -x {1.0 3.1 5 ------- null}
r -t 0.7884 -s 0 -d 2 -p tcp -e 1040 -c 0 -i 12 -a 0 -x {0.0 3.0 1 ------- null}
+ -t 0.7884 -s 2 -d 3 -p tcp -e 1040 -c 0 -i 12 -a 0 -x {0.0 3.0 1 ------- null}
r -t 0.79096 -s 1 -d 2 -p tcp -e 1040 -c 0 -i 11 -a 0 -x {1.0 3.1 6 ------- null}
+ -t 0.79096 -s 2 -d 3 -p tcp -e 1040 -c 0 -i 11 -a 0 -x {1.0 3.1 6 ------- null}
r -t 0.7968 -s 2 -d 3 -p tcp -e 1040 -c 0 -i 6 -a 0 -x {1.0 3.1 3 ------- null}
+ -t 0.7968 -s 3 -d 2 -p ack -e 40 -c 0 -i 13 -a 0 -x {3.1 1.0 3 ------- null}
- -t 0.7968 -s 3 -d 2 -p ack -e 40 -c 0 -i 13 -a 0 -x {3.1 1.0 3 ------- null}
h -t 0.7968 -s 3 -d 2 -p ack -e 40 -c 0 -i 13 -a 0 -x {3.1 1.0 -1 ------- null}
r -t 0.8084 -s 3 -d 2 -p ack -e 40 -c 0 -i 13 -a 0 -x {3.1 1.0 3 ------- null}
+ -t 0.8084 -s 2 -d 1 -p ack -e 40 -c 0 -i 13 -a 0 -x {3.1 1.0 3 ------- null}
- -t 0.8084 -s 2 -d 1 -p ack -e 40 -c 0 -i 13 -a 0 -x {3.1 1.0 3 ------- null}
h -t 0.8084 -s 2 -d 1 -p ack -e 40 -c 0 -i 13 -a 0 -x {3.1 1.0 -1 ------- null}
r -t 0.81856 -s 2 -d 1 -p ack -e 40 -c 0 -i 13 -a 0 -x {3.1 1.0 3 ------- null}
+ -t 0.81856 -s 1 -d 2 -p tcp -e 1040 -c 0 -i 14 -a 0 -x {1.0 3.1 7 ------- null}
- -t 0.81856 -s 1 -d 2 -p tcp -e 1040 -c 0 -i 14 -a 0 -x {1.0 3.1 7 ------- null}
h -t 0.81856 -s 1 -d 2 -p tcp -e 1040 -c 0 -i 14 -a 0 -x {1.0 3.1 -1 ------- null}
+ -t 0.81856 -s 1 -d 2 -p tcp -e 1040 -c 0 -i 15 -a 0 -x {1.0 3.1 8 ------- null}
- -t 0.82272 -s 1 -d 2 -p tcp -e 1040 -c 0 -i 15 -a 0 -x {1.0 3.1 8 ------- null}
h -t 0.82272 -s 1 -d 2 -p tcp -e 1040 -c 0 -i 15 -a 0 -x {1.0 3.1 -1 ------- null}
- -t 0.8284 -s 2 -d 3 -p tcp -e 1040 -c 0 -i 10 -a 0 -x {1.0 3.1 5 ------- null}
h -t 0.8284 -s 2 -d 3 -p tcp -e 1040 -c 0 -i 10 -a 0 -x {1.0 3.1 -1 ------- null}
r -t 0.83272 -s 1 -d 2 -p tcp -e 1040 -c 0 -i 14 -a 0 -x {1.0 3.1 7 ------- null}
+ -t 0.83272 -s 2 -d 3 -p tcp -e 1040 -c 0 -i 14 -a 0 -x {1.0 3.1 7 ------- null}
r -t 0.83688 -s 1 -d 2 -p tcp -e 1040 -c 0 -i 15 -a 0 -x {1.0 3.1 8 ------- null}
+ -t 0.83688 -s 2 -d 3 -p tcp -e 1040 -c 0 -i 15 -a 0 -x {1.0 3.1 8 ------- null}
r -t 0.8384 -s 2 -d 3 -p tcp -e 1040 -c 0 -i 7 -a 0 -x {1.0 3.1 4 ------- null}
+ -t 0.8384 -s 3 -d 2 -p ack -e 40 -c 0 -i 16 -a 0 -x {3.1 1.0 4 ------- null}
- -t 0.8384 -s 3 -d 2 -p ack -e 40 -c 0 -i 16 -a 0 -x {3.1 1.0 4 ------- null}
h -t 0.8384 -s 3 -d 2 -p ack -e 40 -c 0 -i 16 -a 0 -x {3.1 1.0 -1 ------- null}
r -t 0.85 -s 3 -d 2 -p ack -e 40 -c 0 -i 16 -a 0 -x {3.1 1.0 4 ------- null}
+ -t 0.85 -s 2 -d 1 -p ack -e 40 -c 0 -i 16 -a 0 -x {3.1 1.0 4 ------- null}
- -t 0.85 -s 2 -d 1 -p ack -e 40 -c 0 -i 16 -a 0 -x {3.1 1.0 4 ------- null}
h -t 0.85 -s 2 -d 1 -p ack -e 40 -c 0 -i 16 -a 0 -x {3.1 1.0 -1 ------- null}
r -t 0.86016 -s 2 -d 1 -p ack -e 40 -c 0 -i 16 -a 0 -x {3.1 1.0 4 ------- null}
+ -t 0.86016 -s 1 -d 2 -p tcp -e 1040 -c 0 -i 17 -a 0 -x {1.0 3.1 9 ------- null}
- -t 0.86016 -s 1 -d 2 -p tcp -e 1040 -c 0 -i 17 -a 0 -x {1.0 3.1 9 ------- null}
h -t 0.86016 -s 1 -d 2 -p tcp -e 1040 -c 0 -i 17 -a 0 -x {1.0 3.1 -1 ------- null}
+ -t 0.86016 -s 1 -d 2 -p tcp -e 1040 -c 0 -i 18 -a 0 -x {1.0 3.1 10 ------- null}
- -t 0.86432 -s 1 -d 2 -p tcp -e 1040 -c 0 -i 18 -a 0 -x {1.0 3.1 10 ------- null}
h -t 0.86432 -s 1 -d 2 -p tcp -e 1040 -c 0 -i 18 -a 0 -x {1.0 3.1 -1 ------- null}
- -t 0.87 -s 2 -d 3 -p tcp -e 1040 -c 0 -i 12 -a 0 -x {0.0 3.0 1 ------- null}
h -t 0.87 -s 2 -d 3 -p tcp -e 1040 -c 0 -i 12 -a 0 -x {0.0 3.0 -1 ------- null}
r -t 0.87432 -s 1 -d 2 -p tcp -e 1040 -c 0 -i 17 -a 0 -x {1.0 3.1 9 ------- null}
+ -t 0.87432 -s 2 -d 3 -p tcp -e 1040 -c 0 -i 17 -a 0 -x {1.0 3.1 9 ------- null}
r -t 0.87848 -s 1 -d 2 -p tcp -e 1040 -c 0 -i 18 -a 0 -x {1.0 3.1 10 ------- null}
+ -t 0.87848 -s 2 -d 3 -p tcp -e 1040 -c 0 -i 18 -a 0 -x {1.0 3.1 10 ------- null}
r -t 0.88 -s 2 -d 3 -p tcp -e 1040 -c 0 -i 10 -a 0 -x {1.0 3.1 5 ------- null}
+ -t 0.88 -s 3 -d 2 -p ack -e 40 -c 0 -i 19 -a 0 -x {3.1 1.0 5 ------- null}
- -t 0.88 -s 3 -d 2 -p ack -e 40 -c 0 -i 19 -a 0 -x {3.1 1.0 5 ------- null}
h -t 0.88 -s 3 -d 2 -p ack -e 40 -c 0 -i 19 -a 0 -x {3.1 1.0 -1 ------- null}
r -t 0.8916 -s 3 -d 2 -p ack -e 40 -c 0 -i 19 -a 0 -x {3.1 1.0 5 ------- null}
+ -t 0.8916 -s 2 -d 1 -p ack -e 40 -c 0 -i 19 -a 0 -x {3.1 1.0 5 ------- null}
- -t 0.8916 -s 2 -d 1 -p ack -e 40 -c 0 -i 19 -a 0 -x {3.1 1.0 5 ------- null}
h -t 0.8916 -s 2 -d 1 -p ack -e 40 -c 0 -i 19 -a 0 -x {3.1 1.0 -1 ------- null}
r -t 0.90176 -s 2 -d 1 -p ack -e 40 -c 0 -i 19 -a 0 -x {3.1 1.0 5 ------- null}
+ -t 0.90176 -s 1 -d 2 -p tcp -e 1040 -c 0 -i 20 -a 0 -x {1.0 3.1 11 ------- null}
- -t 0.90176 -s 1 -d 2 -p tcp -e 1040 -c 0 -i 20 -a 0 -x {1.0 3.1 11 ------- null}
h -t 0.90176 -s 1 -d 2 -p tcp -e 1040 -c 0 -i 20 -a 0 -x {1.0 3.1 -1 ------- null}
+ -t 0.90176 -s 1 -d 2 -p tcp -e 1040 -c 0 -i 21 -a 0 -x {1.0 3.1 12 ------- null}
- -t 0.90592 -s 1 -d 2 -p tcp -e 1040 -c 0 -i 21 -a 0 -x {1.0 3.1 12 ------- null}
h -t 0.90592 -s 1 -d 2 -p tcp -e 1040 -c 0 -i 21 -a 0 -x {1.0 3.1 -1 ------- null}
- -t 0.9116 -s 2 -d 3 -p tcp -e 1040 -c 0 -i 11 -a 0 -x {1.0 3.1 6 ------- null}
h -t 0.9116 -s 2 -d 3 -p tcp -e 1040 -c 0 -i 11 -a 0 -x {1.0 3.1 -1 ------- null}
r -t 0.91592 -s 1 -d 2 -p tcp -e 1040 -c 0 -i 20 -a 0 -x {1.0 3.1 11 ------- null}
+ -t 0.91592 -s 2 -d 3 -p tcp -e 1040 -c 0 -i 20 -a 0 -x {1.0 3.1 11 ------- null}
r -t 0.92008 -s 1 -d 2 -p tcp -e 1040 -c 0 -i 21 -a 0 -x {1.0 3.1 12 ------- null}
+ -t 0.92008 -s 2 -d 3 -p tcp -e 1040 -c 0 -i 21 -a 0 -x {1.0 3.1 12 ------- null}
r -t 0.9216 -s 2 -d 3 -p tcp -e 1040 -c 0 -i 12 -a 0 -x {0.0 3.0 1 ------- null}
+ -t 0.9216 -s 3 -d 2 -p ack -e 40 -c 0 -i 22 -a 0 -x {3.0 0.0 1 ------- null}
- -t 0.9216 -s 3 -d 2 -p ack -e 40 -c 0 -i 22 -a 0 -x {3.0 0.0 1 ------- null}
h -t 0.9216 -s 3 -d 2 -p ack -e 40 -c 0 -i 22 -a 0 -x {3.0 0.0 -1 ------- null}
r -t 0.9332 -s 3 -d 2 -p ack -e 40 -c 0 -i 22 -a 0 -x {3.0 0.0 1 ------- null}
+ -t 0.9332 -s 2 -d 0 -p ack -e 40 -c 0 -i 22 -a 0 -x {3.0 0.0 1 ------- null}
- -t 0.9332 -s 2 -d 0 -p ack -e 40 -c 0 -i 22 -a 0 -x {3.0 0.0 1 ------- null}
h -t 0.9332 -s 2 -d 0 -p ack -e 40 -c 0 -i 22 -a 0 -x {3.0 0.0 -1 ------- null}
r -t 0.94336 -s 2 -d 0 -p ack -e 40 -c 0 -i 22 -a 0 -x {3.0 0.0 1 ------- null}
- -t 0.9532 -s 2 -d 3 -p tcp -e 1040 -c 0 -i 14 -a 0 -x {1.0 3.1 7 ------- null}
h -t 0.9532 -s 2 -d 3 -p tcp -e 1040 -c 0 -i 14 -a 0 -x {1.0 3.1 -1 ------- null}
r -t 0.9632 -s 2 -d 3 -p tcp -e 1040 -c 0 -i 11 -a 0 -x {1.0 3.1 6 ------- null}
+ -t 0.9632 -s 3 -d 2 -p ack -e 40 -c 0 -i 23 -a 0 -x {3.1 1.0 6 ------- null}
- -t 0.9632 -s 3 -d 2 -p ack -e 40 -c 0 -i 23 -a 0 -x {3.1 1.0 6 ------- null}
h -t 0.9632 -s 3 -d 2 -p ack -e 40 -c 0 -i 23 -a 0 -x {3.1 1.0 -1 ------- null}
r -t 0.9748 -s 3 -d 2 -p ack -e 40 -c 0 -i 23 -a 0 -x {3.1 1.0 6 ------- null}
+ -t 0.9748 -s 2 -d 1 -p ack -e 40 -c 0 -i 23 -a 0 -x {3.1 1.0 6 ------- null}
- -t 0.9748 -s 2 -d 1 -p ack -e 40 -c 0 -i 23 -a 0 -x {3.1 1.0 6 ------- null}
h -t 0.9748 -s 2 -d 1 -p ack -e 40 -c 0 -i 23 -a 0 -x {3.1 1.0 -1 ------- null}
r -t 0.98496 -s 2 -d 1 -p ack -e 40 -c 0 -i 23 -a 0 -x {3.1 1.0 6 ------- null}
+ -t 0.98496 -s 1 -d 2 -p tcp -e 1040 -c 0 -i 24 -a 0 -x {1.0 3.1 13 ------- null}
- -t 0.98496 -s 1 -d 2 -p tcp -e 1040 -c 0 -i 24 -a 0 -x {1.0 3.1 13 ------- null}
h -t 0.98496 -s 1 -d 2 -p tcp -e 1040 -c 0 -i 24 -a 0 -x {1.0 3.1 -1 ------- null}
+ -t 0.98496 -s 1 -d 2 -p tcp -e 1040 -c 0 -i 25 -a 0 -x {1.0 3.1 14 ------- null}
- -t 0.98912 -s 1 -d 2 -p tcp -e 1040 -c 0 -i 25 -a 0 -x {1.0 3.1 14 ------- null}
h -t 0.98912 -s 1 -d 2 -p tcp -e 1040 -c 0 -i 25 -a 0 -x {1.0 3.1 -1 ------- null}
- -t 0.9948 -s 2 -d 3 -p tcp -e 1040 -c 0 -i 15 -a 0 -x {1.0 3.1 8 ------- null}
h -t 0.9948 -s 2 -d 3 -p tcp -e 1040 -c 0 -i 15 -a 0 -x {1.0 3.1 -1 ------- null}
r -t 0.99912 -s 1 -d 2 -p tcp -e 1040 -c 0 -i 24 -a 0 -x {1.0 3.1 13 ------- null}
+ -t 0.99912 -s 2 -d 3 -p tcp -e 1040 -c 0 -i 24 -a 0 -x {1.0 3.1 13 ------- null}
r -t 1.00328 -s 1 -d 2 -p tcp -e 1040 -c 0 -i 25 -a 0 -x {1.0 3.1 14 ------- null}
+ -t 1.00328 -s 2 -d 3 -p tcp -e 1040 -c 0 -i 25 -a 0 -x {1.0 3.1 14 ------- null}
r -t 1.0048 -s 2 -d 3 -p tcp -e 1040 -c 0 -i 14 -a 0 -x {1.0 3.1 7 ------- null}
+ -t 1.0048 -s 3 -d 2 -p ack -e 40 -c 0 -i 26 -a 0 -x {3.1 1.0 7 ------- null}
- -t 1.0048 -s 3 -d 2 -p ack -e 40 -c 0 -i 26 -a 0 -x {3.1 1.0 7 ------- null}
h -t 1.0048 -s 3 -d 2 -p ack -e 40 -c 0 -i 26 -a 0 -x {3.1 1.0 -1 ------- null}
r -t 1.0164 -s 3 -d 2 -p ack -e 40 -c 0 -i 26 -a 0 -x {3.1 1.0 7 ------- null}
+ -t 1.0164 -s 2 -d 1 -p ack -e 40 -c 0 -i 26 -a 0 -x {3.1 1.0 7 ------- null}
- -t 1.0164 -s 2 -d 1 -p ack -e 40 -c 0 -i 26 -a 0 -x {3.1 1.0 7 ------- null}
h -t 1.0164 -s 2 -d 1 -p ack -e 40 -c 0 -i 26 -a 0 -x {3.1 1.0 -1 ------- null}
r -t 1.02656 -s 2 -d 1 -p ack -e 40 -c 0 -i 26 -a 0 -x {3.1 1.0 7 ------- null}
+ -t 1.02656 -s 1 -d 2 -p tcp -e 1040 -c 0 -i 27 -a 0 -x {1.0 3.1 15 ------- null}
- -t 1.02656 -s 1 -d 2 -p tcp -e 1040 -c 0 -i 27 -a 0 -x {1.0 3.1 15 ------- null}
h -t 1.02656 -s 1 -d 2 -p tcp -e 1040 -c 0 -i 27 -a 0 -x {1.0 3.1 -1 ------- null}
+ -t 1.02656 -s 1 -d 2 -p tcp -e 1040 -c 0 -i 28 -a 0 -x {1.0 3.1 16 ------- null}
- -t 1.03072 -s 1 -d 2 -p tcp -e 1040 -c 0 -i 28 -a 0 -x {1.0 3.1 16 ------- null}
h -t 1.03072 -s 1 -d 2 -p tcp -e 1040 -c 0 -i 28 -a 0 -x {1.0 3.1 -1 ------- null}
- -t 1.0364 -s 2 -d 3 -p tcp -e 1040 -c 0 -i 17 -a 0 -x {1.0 3.1 9 ------- null}
h -t 1.0364 -s 2 -d 3 -p tcp -e 1040 -c 0 -i 17 -a 0 -x {1.0 3.1 -1 ------- null}
r -t 1.04072 -s 1 -d 2 -p tcp -e 1040 -c 0 -i 27 -a 0 -x {1.0 3.1 15 ------- null}
+ -t 1.04072 -s 2 -d 3 -p tcp -e 1040 -c 0 -i 27 -a 0 -x {1.0 3.1 15 ------- null}
r -t 1.04488 -s 1 -d 2 -p tcp -e 1040 -c 0 -i 28 -a 0 -x {1.0 3.1 16 ------- null}
+ -t 1.04488 -s 2 -d 3 -p tcp -e 1040 -c 0 -i 28 -a 0 -x {1.0 3.1 16 ------- null}
r -t 1.0464 -s 2 -d 3 -p tcp -e 1040 -c 0 -i 15 -a 0 -x {1.0 3.1 8 ------- null}
+ -t 1.0464 -s 3 -d 2 -p ack -e 40 -c 0 -i 29 -a 0 -x {3.1 1.0 8 ------- null}
- -t 1.0464 -s 3 -d 2 -p ack -e 40 -c 0 -i 29 -a 0 -x {3.1 1.0 8 ------- null}
h -t 1.0464 -s 3 -d 2 -p ack -e 40 -c 0 -i 29 -a 0 -x {3.1 1.0 -1 ------- null}
r -t 1.058 -s 3 -d 2 -p ack -e 40 -c 0 -i 29 -a 0 -x {3.1 1.0 8 ------- null}
+ -t 1.058 -s 2 -d 1 -p ack -e 40 -c 0 -i 29 -a 0 -x {3.1 1.0 8 ------- null}
- -t 1.058 -s 2 -d 1 -p ack -e 40 -c 0 -i 29 -a 0 -x {3.1 1.0 8 ------- null}
h -t 1.058 -s 2 -d 1 -p ack -e 40 -c 0 -i 29 -a 0 -x {3.1 1.0 -1 ------- null}
r -t 1.06816 -s 2 -d 1 -p ack -e 40 -c 0 -i 29 -a 0 -x {3.1 1.0 8 ------- null}
+ -t 1.06816 -s 1 -d 2 -p tcp -e 1040 -c 0 -i 30 -a 0 -x {1.0 3.1 17 ------- null}
- -t 1.06816 -s 1 -d 2 -p tcp -e 1040 -c 0 -i 30 -a 0 -x {1.0 3.1 17 ------- null}
h -t 1.06816 -s 1 -d 2 -p tcp -e 1040 -c 0 -i 30 -a 0 -x {1.0 3.1 -1 ------- null}
+ -t 1.06816 -s 1 -d 2 -p tcp -e 1040 -c 0 -i 31 -a 0 -x {1.0 3.1 18 ------- null}
- -t 1.07232 -s 1 -d 2 -p tcp -e 1040 -c 0 -i 31 -a 0 -x {1.0 3.1 18 ------- null}
h -t 1.07232 -s 1 -d 2 -p tcp -e 1040 -c 0 -i 31 -a 0 -x {1.0 3.1 -1 ------- null}
- -t 1.078 -s 2 -d 3 -p tcp -e 1040 -c 0 -i 18 -a 0 -x {1.0 3.1 10 ------- null}
h -t 1.078 -s 2 -d 3 -p tcp -e 1040 -c 0 -i 18 -a 0 -x {1.0 3.1 -1 ------- null}
r -t 1.08232 -s 1 -d 2 -p tcp -e 1040 -c 0 -i 30 -a 0 -x {1.0 3.1 17 ------- null}
+ -t 1.08232 -s 2 -d 3 -p tcp -e 1040 -c 0 -i 30 -a 0 -x {1.0 3.1 17 ------- null}
r -t 1.08648 -s 1 -d 2 -p tcp -e 1040 -c 0 -i 31 -a 0 -x {1.0 3.1 18 ------- null}
+ -t 1.08648 -s 2 -d 3 -p tcp -e 1040 -c 0 -i 31 -a 0 -x {1.0 3.1 18 ------- null}
r -t 1.088 -s 2 -d 3 -p tcp -e 1040 -c 0 -i 17 -a 0 -x {1.0 3.1 9 ------- null}
+ -t 1.088 -s 3 -d 2 -p ack -e 40 -c 0 -i 32 -a 0 -x {3.1 1.0 9 ------- null}
- -t 1.088 -s 3 -d 2 -p ack -e 40 -c 0 -i 32 -a 0 -x {3.1 1.0 9 ------- null}
h -t 1.088 -s 3 -d 2 -p ack -e 40 -c 0 -i 32 -a 0 -x {3.1 1.0 -1 ------- null}
r -t 1.0996 -s 3 -d 2 -p ack -e 40 -c 0 -i 32 -a 0 -x {3.1 1.0 9 ------- null}
+ -t 1.0996 -s 2 -d 1 -p ack -e 40 -c 0 -i 32 -a 0 -x {3.1 1.0 9 ------- null}
- -t 1.0996 -s 2 -d 1 -p ack -e 40 -c 0 -i 32 -a 0 -x {3.1 1.0 9 ------- null}
h -t 1.0996 -s 2 -d 1 -p ack -e 40 -c 0 -i 32 -a 0 -x {3.1 1.0 -1 ------- null}
r -t 1.10976 -s 2 -d 1 -p ack -e 40 -c 0 -i 32 -a 0 -x {3.1 1.0 9 ------- null}
+ -t 1.10976 -s 1 -d 2 -p tcp -e 1040 -c 0 -i 33 -a 0 -x {1.0 3.1 19 ------- null}
- -t 1.10976 -s 1 -d 2 -p tcp -e 1040 -c 0 -i 33 -a 0 -x {1.0 3.1 19 ------- null}
h -t 1.10976 -s 1 -d 2 -p tcp -e 1040 -c 0 -i 33 -a 0 -x {1.0 3.1 -1 ------- null}
+ -t 1.10976 -s 1 -d 2 -p tcp -e 1040 -c 0 -i 34 -a 0 -x {1.0 3.1 20 ------- null}
- -t 1.11392 -s 1 -d 2 -p tcp -e 1040 -c 0 -i 34 -a 0 -x {1.0 3.1 20 ------- null}
h -t 1.11392 -s 1 -d 2 -p tcp -e 1040 -c 0 -i 34 -a 0 -x {1.0 3.1 -1 ------- null}
- -t 1.1196 -s 2 -d 3 -p tcp -e 1040 -c 0 -i 20 -a 0 -x {1.0 3.1 11 ------- null}
h -t 1.1196 -s 2 -d 3 -p tcp -e 1040 -c 0 -i 20 -a 0 -x {1.0 3.1 -1 ------- null}
r -t 1.12392 -s 1 -d 2 -p tcp -e 1040 -c 0 -i 33 -a 0 -x {1.0 3.1 19 ------- null}
+ -t 1.12392 -s 2 -d 3 -p tcp -e 1040 -c 0 -i 33 -a 0 -x {1.0 3.1 19 ------- null}
r -t 1.12808 -s 1 -d 2 -p tcp -e 1040 -c 0 -i 34 -a 0 -x {1.0 3.1 20 ------- null}
+ -t 1.12808 -s 2 -d 3 -p tcp -e 1040 -c 0 -i 34 -a 0 -x {1.0 3.1 20 ------- null}
r -t 1.1296 -s 2 -d 3 -p tcp -e 1040 -c 0 -i 18 -a 0 -x {1.0 3.1 10 ------- null}
+ -t 1.1296 -s 3 -d 2 -p ack -e 40 -c 0 -i 35 -a 0 -x {3.1 1.0 10 ------- null}
- -t 1.1296 -s 3 -d 2 -p ack -e 40 -c 0 -i 35 -a 0 -x {3.1 1.0 10 ------- null}
h -t 1.1296 -s 3 -d 2 -p ack -e 40 -c 0 -i 35 -a 0 -x {3.1 1.0 -1 ------- null}
r -t 1.1412 -s 3 -d 2 -p ack -e 40 -c 0 -i 35 -a 0 -x {3.1 1.0 10 ------- null}
+ -t 1.1412 -s 2 -d 1 -p ack -e 40 -c 0 -i 35 -a 0 -x {3.1 1.0 10 ------- null}
- -t 1.1412 -s 2 -d 1 -p ack -e 40 -c 0 -i 35 -a 0 -x {3.1 1.0 10 ------- null}
h -t 1.1412 -s 2 -d 1 -p ack -e 40 -c 0 -i 35 -a 0 -x {3.1 1.0 -1 ------- null}
r -t 1.15136 -s 2 -d 1 -p ack -e 40 -c 0 -i 35 -a 0 -x {3.1 1.0 10 ------- null}
+ -t 1.15136 -s 1 -d 2 -p tcp -e 1040 -c 0 -i 36 -a 0 -x {1.0 3.1 21 ------- null}
- -t 1.15136 -s 1 -d 2 -p tcp -e 1040 -c 0 -i 36 -a 0 -x {1.0 3.1 21 ------- null}
h -t 1.15136 -s 1 -d 2 -p tcp -e 1040 -c 0 -i 36 -a 0 -x {1.0 3.1 -1 ------- null}
+ -t 1.15136 -s 1 -d 2 -p tcp -e 1040 -c 0 -i 37 -a 0 -x {1.0 3.1 22 ------- null}
- -t 1.15552 -s 1 -d 2 -p tcp -e 1040 -c 0 -i 37 -a 0 -x {1.0 3.1 22 ------- null}
h -t 1.15552 -s 1 -d 2 -p tcp -e 1040 -c 0 -i 37 -a 0 -x {1.0 3.1 -1 ------- null}
- -t 1.1612 -s 2 -d 3 -p tcp -e 1040 -c 0 -i 21 -a 0 -x {1.0 3.1 12 ------- null}
h -t 1.1612 -s 2 -d 3 -p tcp -e 1040 -c 0 -i 21 -a 0 -x {1.0 3.1 -1 ------- null}
r -t 1.16552 -s 1 -d 2 -p tcp -e 1040 -c 0 -i 36 -a 0 -x {1.0 3.1 21 ------- null}
+ -t 1.16552 -s 2 -d 3 -p tcp -e 1040 -c 0 -i 36 -a 0 -x {1.0 3.1 21 ------- null}
r -t 1.16968 -s 1 -d 2 -p tcp -e 1040 -c 0 -i 37 -a 0 -x {1.0 3.1 22 ------- null}
+ -t 1.16968 -s 2 -d 3 -p tcp -e 1040 -c 0 -i 37 -a 0 -x {1.0 3.1 22 ------- null}
r -t 1.1712 -s 2 -d 3 -p tcp -e 1040 -c 0 -i 20 -a 0 -x {1.0 3.1 11 ------- null}
+ -t 1.1712 -s 3 -d 2 -p ack -e 40 -c 0 -i 38 -a 0 -x {3.1 1.0 11 ------- null}
- -t 1.1712 -s 3 -d 2 -p ack -e 40 -c 0 -i 38 -a 0 -x {3.1 1.0 11 ------- null}
h -t 1.1712 -s 3 -d 2 -p ack -e 40 -c 0 -i 38 -a 0 -x {3.1 1.0 -1 ------- null}
r -t 1.1828 -s 3 -d 2 -p ack -e 40 -c 0 -i 38 -a 0 -x {3.1 1.0 11 ------- null}
+ -t 1.1828 -s 2 -d 1 -p ack -e 40 -c 0 -i 38 -a 0 -x {3.1 1.0 11 ------- null}
- -t 1.1828 -s 2 -d 1 -p ack -e 40 -c 0 -i 38 -a 0 -x {3.1 1.0 11 ------- null}
h -t 1.1828 -s 2 -d 1 -p ack -e 40 -c 0 -i 38 -a 0 -x {3.1 1.0 -1 ------- null}
r -t 1.19296 -s 2 -d 1 -p ack -e 40 -c 0 -i 38 -a 0 -x {3.1 1.0 11 ------- null}
+ -t 1.19296 -s 1 -d 2 -p tcp -e 1040 -c 0 -i 39 -a 0 -x {1.0 3.1 23 ------- null}
- -t 1.19296 -s 1 -d 2 -p tcp -e 1040 -c 0 -i 39 -a 0 -x {1.0 3.1 23 ------- null}
h -t 1.19296 -s 1 -d 2 -p tcp -e 1040 -c 0 -i 39 -a 0 -x {1.0 3.1 -1 ------- null}
+ -t 1.19296 -s 1 -d 2 -p tcp -e 1040 -c 0 -i 40 -a 0 -x {1.0 3.1 24 ------- null}
- -t 1.19712 -s 1 -d 2 -p tcp -e 1040 -c 0 -i 40 -a 0 -x {1.0 3.1 24 ------- null}
h -t 1.19712 -s 1 -d 2 -p tcp -e 1040 -c 0 -i 40 -a 0 -x {1.0 3.1 -1 ------- null}
- -t 1.2028 -s 2 -d 3 -p tcp -e 1040 -c 0 -i 24 -a 0 -x {1.0 3.1 13 ------- null}
h -t 1.2028 -s 2 -d 3 -p tcp -e 1040 -c 0 -i 24 -a 0 -x {1.0 3.1 -1 ------- null}
r -t 1.20712 -s 1 -d 2 -p tcp -e 1040 -c 0 -i 39 -a 0 -x {1.0 3.1 23 ------- null}
+ -t 1.20712 -s 2 -d 3 -p tcp -e 1040 -c 0 -i 39 -a 0 -x {1.0 3.1 23 ------- null}
r -t 1.21128 -s 1 -d 2 -p tcp -e 1040 -c 0 -i 40 -a 0 -x {1.0 3.1 24 ------- null}
+ -t 1.21128 -s 2 -d 3 -p tcp -e 1040 -c 0 -i 40 -a 0 -x {1.0 3.1 24 ------- null}
r -t 1.2128 -s 2 -d 3 -p tcp -e 1040 -c 0 -i 21 -a 0 -x {1.0 3.1 12 ------- null}
+ -t 1.2128 -s 3 -d 2 -p ack -e 40 -c 0 -i 41 -a 0 -x {3.1 1.0 12 ------- null}
- -t 1.2128 -s 3 -d 2 -p ack -e 40 -c 0 -i 41 -a 0 -x {3.1 1.0 12 ------- null}
h -t 1.2128 -s 3 -d 2 -p ack -e 40 -c 0 -i 41 -a 0 -x {3.1 1.0 -1 ------- null}
r -t 1.2244 -s 3 -d 2 -p ack -e 40 -c 0 -i 41 -a 0 -x {3.1 1.0 12 ------- null}
+ -t 1.2244 -s 2 -d 1 -p ack -e 40 -c 0 -i 41 -a 0 -x {3.1 1.0 12 ------- null}
- -t 1.2244 -s 2 -d 1 -p ack -e 40 -c 0 -i 41 -a 0 -x {3.1 1.0 12 ------- null}
h -t 1.2244 -s 2 -d 1 -p ack -e 40 -c 0 -i 41 -a 0 -x {3.1 1.0 -1 ------- null}
r -t 1.23456 -s 2 -d 1 -p ack -e 40 -c 0 -i 41 -a 0 -x {3.1 1.0 12 ------- null}
+ -t 1.23456 -s 1 -d 2 -p tcp -e 1040 -c 0 -i 42 -a 0 -x {1.0 3.1 25 ------- null}
- -t 1.23456 -s 1 -d 2 -p tcp -e 1040 -c 0 -i 42 -a 0 -x {1.0 3.1 25 ------- null}
h -t 1.23456 -s 1 -d 2 -p tcp -e 1040 -c 0 -i 42 -a 0 -x {1.0 3.1 -1 ------- null}
+ -t 1.23456 -s 1 -d 2 -p tcp -e 1040 -c 0 -i 43 -a 0 -x {1.0 3.1 26 ------- null}
- -t 1.23872 -s 1 -d 2 -p tcp -e 1040 -c 0 -i 43 -a 0 -x {1.0 3.1 26 ------- null}
h -t 1.23872 -s 1 -d 2 -p tcp -e 1040 -c 0 -i 43 -a 0 -x {1.0 3.1 -1 ------- null}
- -t 1.2444 -s 2 -d 3 -p tcp -e 1040 -c 0 -i 25 -a 0 -x {1.0 3.1 14 ------- null}
h -t 1.2444 -s 2 -d 3 -p tcp -e 1040 -c 0 -i 25 -a 0 -x {1.0 3.1 -1 ------- null}
r -t 1.24872 -s 1 -d 2 -p tcp -e 1040 -c 0 -i 42 -a 0 -x {1.0 3.1 25 ------- null}
+ -t 1.24872 -s 2 -d 3 -p tcp -e 1040 -c 0 -i 42 -a 0 -x {1.0 3.1 25 ------- null}
r -t 1.25288 -s 1 -d 2 -p tcp -e 1040 -c 0 -i 43 -a 0 -x {1.0 3.1 26 ------- null}
+ -t 1.25288 -s 2 -d 3 -p tcp -e 1040 -c 0 -i 43 -a 0 -x {1.0 3.1 26 ------- null}
r -t 1.2544 -s 2 -d 3 -p tcp -e 1040 -c 0 -i 24 -a 0 -x {1.0 3.1 13 ------- null}
+ -t 1.2544 -s 3 -d 2 -p ack -e 40 -c 0 -i 44 -a 0 -x {3.1 1.0 13 ------- null}
- -t 1.2544 -s 3 -d 2 -p ack -e 40 -c 0 -i 44 -a 0 -x {3.1 1.0 13 ------- null}
h -t 1.2544 -s 3 -d 2 -p ack -e 40 -c 0 -i 44 -a 0 -x {3.1 1.0 -1 ------- null}
r -t 1.266 -s 3 -d 2 -p ack -e 40 -c 0 -i 44 -a 0 -x {3.1 1.0 13 ------- null}
+ -t 1.266 -s 2 -d 1 -p ack -e 40 -c 0 -i 44 -a 0 -x {3.1 1.0 13 ------- null}
- -t 1.266 -s 2 -d 1 -p ack -e 40 -c 0 -i 44 -a 0 -x {3.1 1.0 13 ------- null}
h -t 1.266 -s 2 -d 1 -p ack -e 40 -c 0 -i 44 -a 0 -x {3.1 1.0 -1 ------- null}
r -t 1.27616 -s 2 -d 1 -p ack -e 40 -c 0 -i 44 -a 0 -x {3.1 1.0 13 ------- null}
+ -t 1.27616 -s 1 -d 2 -p tcp -e 1040 -c 0 -i 45 -a 0 -x {1.0 3.1 27 ------- null}
- -t 1.27616 -s 1 -d 2 -p tcp -e 1040 -c 0 -i 45 -a 0 -x {1.0 3.1 27 ------- null}
h -t 1.27616 -s 1 -d 2 -p tcp -e 1040 -c 0 -i 45 -a 0 -x {1.0 3.1 -1 ------- null}
+ -t 1.27616 -s 1 -d 2 -p tcp -e 1040 -c 0 -i 46 -a 0 -x {1.0 3.1 28 ------- null}
- -t 1.28032 -s 1 -d 2 -p tcp -e 1040 -c 0 -i 46 -a 0 -x {1.0 3.1 28 ------- null}
h -t 1.28032 -s 1 -d 2 -p tcp -e 1040 -c 0 -i 46 -a 0 -x {1.0 3.1 -1 ------- null}
- -t 1.286 -s 2 -d 3 -p tcp -e 1040 -c 0 -i 27 -a 0 -x {1.0 3.1 15 ------- null}
h -t 1.286 -s 2 -d 3 -p tcp -e 1040 -c 0 -i 27 -a 0 -x {1.0 3.1 -1 ------- null}
r -t 1.29032 -s 1 -d 2 -p tcp -e 1040 -c 0 -i 45 -a 0 -x {1.0 3.1 27 ------- null}
+ -t 1.29032 -s 2 -d 3 -p tcp -e 1040 -c 0 -i 45 -a 0 -x {1.0 3.1 27 ------- null}
r -t 1.29448 -s 1 -d 2 -p tcp -e 1040 -c 0 -i 46 -a 0 -x {1.0 3.1 28 ------- null}
+ -t 1.29448 -s 2 -d 3 -p tcp -e 1040 -c 0 -i 46 -a 0 -x {1.0 3.1 28 ------- null}
r -t 1.296 -s 2 -d 3 -p tcp -e 1040 -c 0 -i 25 -a 0 -x {1.0 3.1 14 ------- null}
+ -t 1.296 -s 3 -d 2 -p ack -e 40 -c 0 -i 47 -a 0 -x {3.1 1.0 14 ------- null}
- -t 1.296 -s 3 -d 2 -p ack -e 40 -c 0 -i 47 -a 0 -x {3.1 1.0 14 ------- null}
h -t 1.296 -s 3 -d 2 -p ack -e 40 -c 0 -i 47 -a 0 -x {3.1 1.0 -1 ------- null}
r -t 1.3076 -s 3 -d 2 -p ack -e 40 -c 0 -i 47 -a 0 -x {3.1 1.0 14 ------- null}
+ -t 1.3076 -s 2 -d 1 -p ack -e 40 -c 0 -i 47 -a 0 -x {3.1 1.0 14 ------- null}
- -t 1.3076 -s 2 -d 1 -p ack -e 40 -c 0 -i 47 -a 0 -x {3.1 1.0 14 ------- null}
h -t 1.3076 -s 2 -d 1 -p ack -e 40 -c 0 -i 47 -a 0 -x {3.1 1.0 -1 ------- null}
r -t 1.31776 -s 2 -d 1 -p ack -e 40 -c 0 -i 47 -a 0 -x {3.1 1.0 14 ------- null}
+ -t 1.31776 -s 1 -d 2 -p tcp -e 1040 -c 0 -i 48 -a 0 -x {1.0 3.1 29 ------- null}
- -t 1.31776 -s 1 -d 2 -p tcp -e 1040 -c 0 -i 48 -a 0 -x {1.0 3.1 29 ------- null}
h -t 1.31776 -s 1 -d 2 -p tcp -e 1040 -c 0 -i 48 -a 0 -x {1.0 3.1 -1 ------- null}
+ -t 1.31776 -s 1 -d 2 -p tcp -e 1040 -c 0 -i 49 -a 0 -x {1.0 3.1 30 ------- null}
- -t 1.32192 -s 1 -d 2 -p tcp -e 1040 -c 0 -i 49 -a 0 -x {1.0 3.1 30 ------- null}
h -t 1.32192 -s 1 -d 2 -p tcp -e 1040 -c 0 -i 49 -a 0 -x {1.0 3.1 -1 ------- null}
- -t 1.3276 -s 2 -d 3 -p tcp -e 1040 -c 0 -i 28 -a 0 -x {1.0 3.1 16 ------- null}
h -t 1.3276 -s 2 -d 3 -p tcp -e 1040 -c 0 -i 28 -a 0 -x {1.0 3.1 -1 ------- null}
r -t 1.33192 -s 1 -d 2 -p tcp -e 1040 -c 0 -i 48 -a 0 -x {1.0 3.1 29 ------- null}
+ -t 1.33192 -s 2 -d 3 -p tcp -e 1040 -c 0 -i 48 -a 0 -x {1.0 3.1 29 ------- null}
r -t 1.33608 -s 1 -d 2 -p tcp -e 1040 -c 0 -i 49 -a 0 -x {1.0 3.1 30 ------- null}
+ -t 1.33608 -s 2 -d 3 -p tcp -e 1040 -c 0 -i 49 -a 0 -x {1.0 3.1 30 ------- null}
r -t 1.3376 -s 2 -d 3 -p tcp -e 1040 -c 0 -i 27 -a 0 -x {1.0 3.1 15 ------- null}
+ -t 1.3376 -s 3 -d 2 -p ack -e 40 -c 0 -i 50 -a 0 -x {3.1 1.0 15 ------- null}
- -t 1.3376 -s 3 -d 2 -p ack -e 40 -c 0 -i 50 -a 0 -x {3.1 1.0 15 ------- null}
h -t 1.3376 -s 3 -d 2 -p ack -e 40 -c 0 -i 50 -a 0 -x {3.1 1.0 -1 ------- null}
r -t 1.3492 -s 3 -d 2 -p ack -e 40 -c 0 -i 50 -a 0 -x {3.1 1.0 15 ------- null}
+ -t 1.3492 -s 2 -d 1 -p ack -e 40 -c 0 -i 50 -a 0 -x {3.1 1.0 15 ------- null}
- -t 1.3492 -s 2 -d 1 -p ack -e 40 -c 0 -i 50 -a 0 -x {3.1 1.0 15 ------- null}
h -t 1.3492 -s 2 -d 1 -p ack -e 40 -c 0 -i 50 -a 0 -x {3.1 1.0 -1 ------- null}