+ 0.6 1 2 tcp 40 ------- 0 1.0 3.1 0 0
- 0.6 1 2 tcp 40 ------- 0 1.0 3.1 0 0
r 0.61016 1 2 tcp 40 ------- 0 1.0 3.1 0 0
+ 0.61016 2 3 tcp 40 ------- 0 1.0 3.1 0 0
- 0.61016 2 3 tcp 40 ------- 0 1.0 3.1 0 0
r 0.62176 2 3 tcp 40 ------- 0 1.0 3.1 0 0
+ 0.62176 3 2 ack 40 ------- 0 3.1 1.0 0 1
- 0.62176 3 2 ack 40 ------- 0 3.1 1.0 0 1
r 0.63336 3 2 ack 40 ------- 0 3.1 1.0 0 1
+ 0.63336 2 1 ack 40 ------- 0 3.1 1.0 0 1
- 0.63336 2 1 ack 40 ------- 0 3.1 1.0 0 1
r 0.64352 2 1 ack 40 ------- 0 3.1 1.0 0 1
+ 0.64352 1 2 tcp 1040 ------- 0 1.0 3.1 1 2
- 0.64352 1 2 tcp 1040 ------- 0 1.0 3.1 1 2
+ 0.64352 1 2 tcp 1040 ------- 0 1.0 3.1 2 3
- 0.64768 1 2 tcp 1040 ------- 0 1.0 3.1 2 3
r 0.65768 1 2 tcp 1040 ------- 0 1.0 3.1 1 2
+ 0.65768 2 3 tcp 1040 ------- 0 1.0 3.1 1 2
- 0.65768 2 3 tcp 1040 ------- 0 1.0 3.1 1 2
r 0.66184 1 2 tcp 1040 ------- 0 1.0 3.1 2 3
+ 0.66184 2 3 tcp 1040 ------- 0 1.0 3.1 2 3
- 0.69928 2 3 tcp 1040 ------- 0 1.0 3.1 2 3
+ 0.70779 0 2 tcp 40 ------- 0 0.0 3.0 0 4
- 0.70779 0 2 tcp 40 ------- 0 0.0 3.0 0 4
r 0.70928 2 3 tcp 1040 ------- 0 1.0 3.1 1 2
+ 0.70928 3 2 ack 40 ------- 0 3.1 1.0 1 5
- 0.70928 3 2 ack 40 ------- 0 3.1 1.0 1 5
r 0.71795 0 2 tcp 40 ------- 0 0.0 3.0 0 4
+ 0.71795 2 3 tcp 40 ------- 0 0.0 3.0 0 4
r 0.72088 3 2 ack 40 ------- 0 3.1 1.0 1 5
+ 0.72088 2 1 ack 40 ------- 0 3.1 1.0 1 5
- 0.72088 2 1 ack 40 ------- 0 3.1 1.0 1 5
r 0.73104 2 1 ack 40 ------- 0 3.1 1.0 1 5
+ 0.73104 1 2 tcp 1040 ------- 0 1.0 3.1 3 6
- 0.73104 1 2 tcp 1040 ------- 0 1.0 3.1 3 6
+ 0.73104 1 2 tcp 1040 ------- 0 1.0 3.1 4 7
- 0.7352 1 2 tcp 1040 ------- 0 1.0 3.1 4 7
- 0.74088 2 3 tcp 40 ------- 0 0.0 3.0 0 4
r 0.7452 1 2 tcp 1040 ------- 0 1.0 3.1 3 6
+ 0.7452 2 3 tcp 1040 ------- 0 1.0 3.1 3 6
- 0.7452 2 3 tcp 1040 ------- 0 1.0 3.1 3 6
r 0.74936 1 2 tcp 1040 ------- 0 1.0 3.1 4 7
+ 0.74936 2 3 tcp 1040 ------- 0 1.0 3.1 4 7
r 0.75088 2 3 tcp 1040 ------- 0 1.0 3.1 2 3
+ 0.75088 3 2 ack 40 ------- 0 3.1 1.0 2 8
- 0.75088 3 2 ack 40 ------- 0 3.1 1.0 2 8
r 0.75248 2 3 tcp 40 ------- 0 0.0 3.0 0 4
+ 0.75248 3 2 ack 40 ------- 0 3.0 0.0 0 9
- 0.75248 3 2 ack 40 ------- 0 3.0 0.0 0 9
r 0.76248 3 2 ack 40 ------- 0 3.1 1.0 2 8
+ 0.76248 2 1 ack 40 ------- 0 3.1 1.0 2 8
- 0.76248 2 1 ack 40 ------- 0 3.1 1.0 2 8
r 0.76408 3 2 ack 40 ------- 0 3.0 0.0 0 9
+ 0.76408 2 0 ack 40 ------- 0 3.0 0.0 0 9
- 0.76408 2 0 ack 40 ------- 0 3.0 0.0 0 9
r 0.77264 2 1 ack 40 ------- 0 3.1 1.0 2 8
+ 0.77264 1 2 tcp 1040 ------- 0 1.0 3.1 5 10
- 0.77264 1 2 tcp 1040 ------- 0 1.0 3.1 5 10
+ 0.77264 1 2 tcp 1040 ------- 0 1.0 3.1 6 11
r 0.77424 2 0 ack 40 ------- 0 3.0 0.0 0 9
+ 0.77424 0 2 tcp 1040 ------- 0 0.0 3.0 1 12
- 0.77424 0 2 tcp 1040 ------- 0 0.0 3.0 1 12
- 0.7768 1 2 tcp 1040 ------- 0 1.0 3.1 6 11
- 0.7868 2 3 tcp 1040 ------- 0 1.0 3.1 4 7
r 0.7868 1 2 tcp 1040 ------- 0 1.0 3.1 5 10
+ 0.7868 2 3 tcp 1040 ------- 0 1.0 3.1 5 10
r 0.7884 0 2 tcp 1040 ------- 0 0.0 3.0 1 12
+ 0.7884 2 3 tcp 1040 ------- 0 0.0 3.0 1 12
r 0.79096 1 2 tcp 1040 ------- 0 1.0 3.1 6 11
+ 0.79096 2 3 tcp 1040 ------- 0 1.0 3.1 6 11
r 0.7968 2 3 tcp 1040 ------- 0 1.0 3.1 3 6
+ 0.7968 3 2 ack 40 ------- 0 3.1 1.0 3 13
- 0.7968 3 2 ack 40 ------- 0 3.1 1.0 3 13
r 0.8084 3 2 ack 40 ------- 0 3.1 1.0 3 13
+ 0.8084 2 1 ack 40 ------- 0 3.1 1.0 3 13
- 0.8084 2 1 ack 40 ------- 0 3.1 1.0 3 13
r 0.81856 2 1 ack 40 ------- 0 3.1 1.0 3 13
+ 0.81856 1 2 tcp 1040 ------- 0 1.0 3.1 7 14
- 0.81856 1 2 tcp 1040 ------- 0 1.0 3.1 7 14
+ 0.81856 1 2 tcp 1040 ------- 0 1.0 3.1 8 15
- 0.82272 1 2 tcp 1040 ------- 0 1.0 3.1 8 15
- 0.8284 2 3 tcp 1040 ------- 0 1.0 3.1 5 10
r 0.83272 1 2 tcp 1040 ------- 0 1.0 3.1 7 14
+ 0.83272 2 3 tcp 1040 ------- 0 1.0 3.1 7 14
r 0.83688 1 2 tcp 1040 ------- 0 1.0 3.1 8 15
+ 0.83688 2 3 tcp 1040 ------- 0 1.0 3.1 8 15
r 0.8384 2 3 tcp 1040 ------- 0 1.0 3.1 4 7
+ 0.8384 3 2 ack 40 ------- 0 3.1 1.0 4 16
- 0.8384 3 2 ack 40 ------- 0 3.1 1.0 4 16
r 0.85 3 2 ack 40 ------- 0 3.1 1.0 4 16
+ 0.85 2 1 ack 40 ------- 0 3.1 1.0 4 16
- 0.85 2 1 ack 40 ------- 0 3.1 1.0 4 16
r 0.86016 2 1 ack 40 ------- 0 3.1 1.0 4 16
+ 0.86016 1 2 tcp 1040 ------- 0 1.0 3.1 9 17
- 0.86016 1 2 tcp 1040 ------- 0 1.0 3.1 9 17
+ 0.86016 1 2 tcp 1040 ------- 0 1.0 3.1 10 18
- 0.86432 1 2 tcp 1040 ------- 0 1.0 3.1 10 18
- 0.87 2 3 tcp 1040 ------- 0 0.0 3.0 1 12
r 0.87432 1 2 tcp 1040 ------- 0 1.0 3.1 9 17
+ 0.87432 2 3 tcp 1040 ------- 0 1.0 3.1 9 17
r 0.87848 1 2 tcp 1040 ------- 0 1.0 3.1 10 18
+ 0.87848 2 3 tcp 1040 ------- 0 1.0 3.1 10 18
r 0.88 2 3 tcp 1040 ------- 0 1.0 3.1 5 10
+ 0.88 3 2 ack 40 ------- 0 3.1 1.0 5 19
- 0.88 3 2 ack 40 ------- 0 3.1 1.0 5 19
r 0.8916 3 2 ack 40 ------- 0 3.1 1.0 5 19
+ 0.8916 2 1 ack 40 ------- 0 3.1 1.0 5 19
- 0.8916 2 1 ack 40 ------- 0 3.1 1.0 5 19
r 0.90176 2 1 ack 40 ------- 0 3.1 1.0 5 19
+ 0.90176 1 2 tcp 1040 ------- 0 1.0 3.1 11 20
- 0.90176 1 2 tcp 1040 ------- 0 1.0 3.1 11 20
+ 0.90176 1 2 tcp 1040 ------- 0 1.0 3.1 12 21
- 0.90592 1 2 tcp 1040 ------- 0 1.0 3.1 12 21
- 0.9116 2 3 tcp 1040 ------- 0 1.0 3.1 6 11
r 0.91592 1 2 tcp 1040 ------- 0 1.0 3.1 11 20
+ 0.91592 2 3 tcp 1040 ------- 0 1.0 3.1 11 20
r 0.92008 1 2 tcp 1040 ------- 0 1.0 3.1 12 21
+ 0.92008 2 3 tcp 1040 ------- 0 1.0 3.1 12 21
r 0.9216 2 3 tcp 1040 ------- 0 0.0 3.0 1 12
+ 0.9216 3 2 ack 40 ------- 0 3.0 0.0 1 22
- 0.9216 3 2 ack 40 ------- 0 3.0 0.0 1 22
r 0.9332 3 2 ack 40 ------- 0 3.0 0.0 1 22
+ 0.9332 2 0 ack 40 ------- 0 3.0 0.0 1 22
- 0.9332 2 0 ack 40 ------- 0 3.0 0.0 1 22
r 0.94336 2 0 ack 40 ------- 0 3.0 0.0 1 22
- 0.9532 2 3 tcp 1040 ------- 0 1.0 3.1 7 14
r 0.9632 2 3 tcp 1040 ------- 0 1.0 3.1 6 11
+ 0.9632 3 2 ack 40 ------- 0 3.1 1.0 6 23
- 0.9632 3 2 ack 40 ------- 0 3.1 1.0 6 23
r 0.9748 3 2 ack 40 ------- 0 3.1 1.0 6 23
+ 0.9748 2 1 ack 40 ------- 0 3.1 1.0 6 23
- 0.9748 2 1 ack 40 ------- 0 3.1 1.0 6 23
r 0.98496 2 1 ack 40 ------- 0 3.1 1.0 6 23
+ 0.98496 1 2 tcp 1040 ------- 0 1.0 3.1 13 24
- 0.98496 1 2 tcp 1040 ------- 0 1.0 3.1 13 24
+ 0.98496 1 2 tcp 1040 ------- 0 1.0 3.1 14 25
- 0.98912 1 2 tcp 1040 ------- 0 1.0 3.1 14 25
- 0.9948 2 3 tcp 1040 ------- 0 1.0 3.1 8 15
r 0.99912 1 2 tcp 1040 ------- 0 1.0 3.1 13 24
+ 0.99912 2 3 tcp 1040 ------- 0 1.0 3.1 13 24
r 1.00328 1 2 tcp 1040 ------- 0 1.0 3.1 14 25
+ 1.00328 2 3 tcp 1040 ------- 0 1.0 3.1 14 25
r 1.0048 2 3 tcp 1040 ------- 0 1.0 3.1 7 14
+ 1.0048 3 2 ack 40 ------- 0 3.1 1.0 7 26
- 1.0048 3 2 ack 40 ------- 0 3.1 1.0 7 26
r 1.0164 3 2 ack 40 ------- 0 3.1 1.0 7 26
+ 1.0164 2 1 ack 40 ------- 0 3.1 1.0 7 26
- 1.0164 2 1 ack 40 ------- 0 3.1 1.0 7 26
r 1.02656 2 1 ack 40 ------- 0 3.1 1.0 7 26
+ 1.02656 1 2 tcp 1040 ------- 0 1.0 3.1 15 27
- 1.02656 1 2 tcp 1040 ------- 0 1.0 3.1 15 27
+ 1.02656 1 2 tcp 1040 ------- 0 1.0 3.1 16 28
- 1.03072 1 2 tcp 1040 ------- 0 1.0 3.1 16 28
- 1.0364 2 3 tcp 1040 ------- 0 1.0 3.1 9 17
r 1.04072 1 2 tcp 1040 ------- 0 1.0 3.1 15 27
+ 1.04072 2 3 tcp 1040 ------- 0 1.0 3.1 15 27
r 1.04488 1 2 tcp 1040 ------- 0 1.0 3.1 16 28
+ 1.04488 2 3 tcp 1040 ------- 0 1.0 3.1 16 28
r 1.0464 2 3 tcp 1040 ------- 0 1.0 3.1 8 15
+ 1.0464 3 2 ack 40 ------- 0 3.1 1.0 8 29
- 1.0464 3 2 ack 40 ------- 0 3.1 1.0 8 29
r 1.058 3 2 ack 40 ------- 0 3.1 1.0 8 29
+ 1.058 2 1 ack 40 ------- 0 3.1 1.0 8 29
- 1.058 2 1 ack 40 ------- 0 3.1 1.0 8 29
r 1.06816 2 1 ack 40 ------- 0 3.1 1.0 8 29
+ 1.06816 1 2 tcp 1040 ------- 0 1.0 3.1 17 30
- 1.06816 1 2 tcp 1040 ------- 0 1.0 3.1 17 30
+ 1.06816 1 2 tcp 1040 ------- 0 1.0 3.1 18 31
- 1.07232 1 2 tcp 1040 ------- 0 1.0 3.1 18 31
- 1.078 2 3 tcp 1040 ------- 0 1.0 3.1 10 18
r 1.08232 1 2 tcp 1040 ------- 0 1.0 3.1 17 30
+ 1.08232 2 3 tcp 1040 ------- 0 1.0 3.1 17 30
r 1.08648 1 2 tcp 1040 ------- 0 1.0 3.1 18 31
+ 1.08648 2 3 tcp 1040 ------- 0 1.0 3.1 18 31
r 1.088 2 3 tcp 1040 ------- 0 1.0 3.1 9 17
+ 1.088 3 2 ack 40 ------- 0 3.1 1.0 9 32
- 1.088 3 2 ack 40 ------- 0 3.1 1.0 9 32
r 1.0996 3 2 ack 40 ------- 0 3.1 1.0 9 32
+ 1.0996 2 1 ack 40 ------- 0 3.1 1.0 9 32
- 1.0996 2 1 ack 40 ------- 0 3.1 1.0 9 32
r 1.10976 2 1 ack 40 ------- 0 3.1 1.0 9 32
+ 1.10976 1 2 tcp 1040 ------- 0 1.0 3.1 19 33
- 1.10976 1 2 tcp 1040 ------- 0 1.0 3.1 19 33
+ 1.10976 1 2 tcp 1040 ------- 0 1.0 3.1 20 34
- 1.11392 1 2 tcp 1040 ------- 0 1.0 3.1 20 34
- 1.1196 2 3 tcp 1040 ------- 0 1.0 3.1 11 20
r 1.12392 1 2 tcp 1040 ------- 0 1.0 3.1 19 33
+ 1.12392 2 3 tcp 1040 ------- 0 1.0 3.1 19 33
r 1.12808 1 2 tcp 1040 ------- 0 1.0 3.1 20 34
+ 1.12808 2 3 tcp 1040 ------- 0 1.0 3.1 20 34
r 1.1296 2 3 tcp 1040 ------- 0 1.0 3.1 10 18
+ 1.1296 3 2 ack 40 ------- 0 3.1 1.0 10 35
- 1.1296 3 2 ack 40 ------- 0 3.1 1.0 10 35
r 1.1412 3 2 ack 40 ------- 0 3.1 1.0 10 35
+ 1.1412 2 1 ack 40 ------- 0 3.1 1.0 10 35
- 1.1412 2 1 ack 40 ------- 0 3.1 1.0 10 35
r 1.15136 2 1 ack 40 ------- 0 3.1 1.0 10 35
+ 1.15136 1 2 tcp 1040 ------- 0 1.0 3.1 21 36
- 1.15136 1 2 tcp 1040 ------- 0 1.0 3.1 21 36
+ 1.15136 1 2 tcp 1040 ------- 0 1.0 3.1 22 37
- 1.15552 1 2 tcp 1040 ------- 0 1.0 3.1 22 37
- 1.1612 2 3 tcp 1040 ------- 0 1.0 3.1 12 21
r 1.16552 1 2 tcp 1040 ------- 0 1.0 3.1 21 36
+ 1.16552 2 3 tcp 1040 ------- 0 1.0 3.1 21 36
r 1.16968 1 2 tcp 1040 ------- 0 1.0 3.1 22 37
+ 1.16968 2 3 tcp 1040 ------- 0 1.0 3.1 22 37
r 1.1712 2 3 tcp 1040 ------- 0 1.0 3.1 11 20
+ 1.1712 3 2 ack 40 ------- 0 3.1 1.0 11 38
- 1.1712 3 2 ack 40 ------- 0 3.1 1.0 11 38
r 1.1828 3 2 ack 40 ------- 0 3.1 1.0 11 38
+ 1.1828 2 1 ack 40 ------- 0 3.1 1.0 11 38
- 1.1828 2 1 ack 40 ------- 0 3.1 1.0 11 38
r 1.19296 2 1 ack 40 ------- 0 3.1 1.0 11 38
+ 1.19296 1 2 tcp 1040 ------- 0 1.0 3.1 23 39
- 1.19296 1 2 tcp 1040 ------- 0 1.0 3.1 23 39
+ 1.19296 1 2 tcp 1040 ------- 0 1.0 3.1 24 40
- 1.19712 1 2 tcp 1040 ------- 0 1.0 3.1 24 40
- 1.2028 2 3 tcp 1040 ------- 0 1.0 3.1 13 24
r 1.20712 1 2 tcp 1040 ------- 0 1.0 3.1 23 39
+ 1.20712 2 3 tcp 1040 ------- 0 1.0 3.1 23 39
r 1.21128 1 2 tcp 1040 ------- 0 1.0 3.1 24 40
+ 1.21128 2 3 tcp 1040 ------- 0 1.0 3.1 24 40
r 1.2128 2 3 tcp 1040 ------- 0 1.0 3.1 12 21
+ 1.2128 3 2 ack 40 ------- 0 3.1 1.0 12 41
- 1.2128 3 2 ack 40 ------- 0 3.1 1.0 12 41
r 1.2244 3 2 ack 40 ------- 0 3.1 1.0 12 41
+ 1.2244 2 1 ack 40 ------- 0 3.1 1.0 12 41
- 1.2244 2 1 ack 40 ------- 0 3.1 1.0 12 41
r 1.23456 2 1 ack 40 ------- 0 3.1 1.0 12 41
+ 1.23456 1 2 tcp 1040 ------- 0 1.0 3.1 25 42
- 1.23456 1 2 tcp 1040 ------- 0 1.0 3.1 25 42
+ 1.23456 1 2 tcp 1040 ------- 0 1.0 3.1 26 43
- 1.23872 1 2 tcp 1040 ------- 0 1.0 3.1 26 43
- 1.2444 2 3 tcp 1040 ------- 0 1.0 3.1 14 25
r 1.24872 1 2 tcp 1040 ------- 0 1.0 3.1 25 42
+ 1.24872 2 3 tcp 1040 ------- 0 1.0 3.1 25 42
r 1.25288 1 2 tcp 1040 ------- 0 1.0 3.1 26 43
+ 1.25288 2 3 tcp 1040 ------- 0 1.0 3.1 26 43
r 1.2544 2 3 tcp 1040 ------- 0 1.0 3.1 13 24
+ 1.2544 3 2 ack 40 ------- 0 3.1 1.0 13 44
- 1.2544 3 2 ack 40 ------- 0 3.1 1.0 13 44
r 1.266 3 2 ack 40 ------- 0 3.1 1.0 13 44
+ 1.266 2 1 ack 40 ------- 0 3.1 1.0 13 44
- 1.266 2 1 ack 40 ------- 0 3.1 1.0 13 44
r 1.27616 2 1 ack 40 ------- 0 3.1 1.0 13 44
+ 1.27616 1 2 tcp 1040 ------- 0 1.0 3.1 27 45
- 1.27616 1 2 tcp 1040 ------- 0 1.0 3.1 27 45
+ 1.27616 1 2 tcp 1040 ------- 0 1.0 3.1 28 46
- 1.28032 1 2 tcp 1040 ------- 0 1.0 3.1 28 46
- 1.286 2 3 tcp 1040 ------- 0 1.0 3.1 15 27
r 1.29032 1 2 tcp 1040 ------- 0 1.0 3.1 27 45
+ 1.29032 2 3 tcp 1040 ------- 0 1.0 3.1 27 45
r 1.29448 1 2 tcp 1040 ------- 0 1.0 3.1 28 46
+ 1.29448 2 3 tcp 1040 ------- 0 1.0 3.1 28 46
r 1.296 2 3 tcp 1040 ------- 0 1.0 3.1 14 25
+ 1.296 3 2 ack 40 ------- 0 3.1 1.0 14 47
- 1.296 3 2 ack 40 ------- 0 3.1 1.0 14 47
r 1.3076 3 2 ack 40 ------- 0 3.1 1.0 14 47
+ 1.3076 2 1 ack 40 ------- 0 3.1 1.0 14 47
- 1.3076 2 1 ack 40 ------- 0 3.1 1.0 14 47
r 1.31776 2 1 ack 40 ------- 0 3.1 1.0 14 47
+ 1.31776 1 2 tcp 1040 ------- 0 1.0 3.1 29 48
- 1.31776 1 2 tcp 1040 ------- 0 1.0 3.1 29 48
+ 1.31776 1 2 tcp 1040 ------- 0 1.0 3.1 30 49
- 1.32192 1 2 tcp 1040 ------- 0 1.0 3.1 30 49
- 1.3276 2 3 tcp 1040 ------- 0 1.0 3.1 16 28
r 1.33192 1 2 tcp 1040 ------- 0 1.0 3.1 29 48
+ 1.33192 2 3 tcp 1040 ------- 0 1.0 3.1 29 48
r 1.33608 1 2 tcp 1040 ------- 0 1.0 3.1 30 49
+ 1.33608 2 3 tcp 1040 ------- 0 1.0 3.1 30 49
r 1.3376 2 3 tcp 1040 ------- 0 1.0 3.1 15 27
+ 1.3376 3 2 ack 40 ------- 0 3.1 1.0 15 50
- 1.3376 3 2 ack 40 ------- 0 3.1 1.0 15 50
r 1.3492 3 2 ack 40 ------- 0 3.1 1.0 15 50
+ 1.3492 2 1 ack 40 ------- 0 3.1 1.0 15 50
- 1.3492 2 1 ack 40 ------- 0 3.1 1.0 15 50
r 1.35936 2 1 ack 40 ------- 0 3.1 1.0 15 50
+ 1.35936 1 2 tcp 1040 ------- 0 1.0 3.1 31 51
- 1.35936 1 2 tcp 1040 ------- 0 1.0 3.1 31 51
+ 1.35936 1 2 tcp 1040 ------- 0 1.0 3.1 32 52
- 1.36352 1 2 tcp 1040 ------- 0 1.0 3.1 32 52
- 1.3692 2 3 tcp 1040 ------- 0 1.0 3.1 17 30
r 1.37352 1 2 tcp 1040 ------- 0 1.0 3.1 31 51
+ 1.37352 2 3 tcp 1040 ------- 0 1.0 3.1 31 51
r 1.37768 1 2 tcp 1040 ------- 0 1.0 3.1 32 52
+ 1.37768 2 3 tcp 1040 ------- 0 1.0 3.1 32 52
r 1.3792 2 3 tcp 1040 ------- 0 1.0 3.1 16 28
+ 1.3792 3 2 ack 40 ------- 0 3.1 1.0 16 53
- 1.3792 3 2 ack 40 ------- 0 3.1 1.0 16 53
r 1.3908 3 2 ack 40 ------- 0 3.1 1.0 16 53
+ 1.3908 2 1 ack 40 ------- 0 3.1 1.0 16 53
- 1.3908 2 1 ack 40 ------- 0 3.1 1.0 16 53
r 1.40096 2 1 ack 40 ------- 0 3.1 1.0 16 53
+ 1.40096 1 2 tcp 1040 ------- 0 1.0 3.1 33 54
- 1.40096 1 2 tcp 1040 ------- 0 1.0 3.1 33 54
+ 1.40096 1 2 tcp 1040 ------- 0 1.0 3.1 34 55
- 1.40512 1 2 tcp 1040 ------- 0 1.0 3.1 34 55
- 1.4108 2 3 tcp 1040 ------- 0 1.0 3.1 18 31
r 1.41512 1 2 tcp 1040 ------- 0 1.0 3.1 33 54
+ 1.41512 2 3 tcp 1040 ------- 0 1.0 3.1 33 54
r 1.41928 1 2 tcp 1040 ------- 0 1.0 3.1 34 55
+ 1.41928 2 3 tcp 1040 ------- 0 1.0 3.1 34 55
r 1.4208 2 3 tcp 1040 ------- 0 1.0 3.1 17 30
+ 1.4208 3 2 ack 40 ------- 0 3.1 1.0 17 56
- 1.4208 3 2 ack 40 ------- 0 3.1 1.0 17 56
+ 1.431391 0 2 tcp 1040 ---A--- 0 0.0 3.0 2 57
- 1.431391 0 2 tcp 1040 ---A--- 0 0.0 3.0 2 57
r 1.4324 3 2 ack 40 ------- 0 3.1 1.0 17 56
+ 1.4324 2 1 ack 40 ------- 0 3.1 1.0 17 56
- 1.4324 2 1 ack 40 ------- 0 3.1 1.0 17 56
r 1.44256 2 1 ack 40 ------- 0 3.1 1.0 17 56
+ 1.44256 1 2 tcp 1040 ------- 0 1.0 3.1 35 58
- 1.44256 1 2 tcp 1040 ------- 0 1.0 3.1 35 58
+ 1.44256 1 2 tcp 1040 ------- 0 1.0 3.1 36 59
r 1.445551 0 2 tcp 1040 ---A--- 0 0.0 3.0 2 57
+ 1.445551 2 3 tcp 1040 ---A--- 0 0.0 3.0 2 57
- 1.44672 1 2 tcp 1040 ------- 0 1.0 3.1 36 59
- 1.4524 2 3 tcp 1040 ------- 0 1.0 3.1 19 33
r 1.45672 1 2 tcp 1040 ------- 0 1.0 3.1 35 58
+ 1.45672 2 3 tcp 1040 ------- 0 1.0 3.1 35 58
r 1.46088 1 2 tcp 1040 ------- 0 1.0 3.1 36 59
+ 1.46088 2 3 tcp 1040 ------- 0 1.0 3.1 36 59
r 1.4624 2 3 tcp 1040 ------- 0 1.0 3.1 18 31
+ 1.4624 3 2 ack 40 ------- 0 3.1 1.0 18 60
- 1.4624 3 2 ack 40 ------- 0 3.1 1.0 18 60
r 1.474 3 2 ack 40 ------- 0 3.1 1.0 18 60
+ 1.474 2 1 ack 40 ------- 0 3.1 1.0 18 60
- 1.474 2 1 ack 40 ------- 0 3.1 1.0 18 60
r 1.48416 2 1 ack 40 ------- 0 3.1 1.0 18 60
+ 1.48416 1 2 tcp 1040 ------- 0 1.0 3.1 37 61
- 1.48416 1 2 tcp 1040 ------- 0 1.0 3.1 37 61
+ 1.48416 1 2 tcp 1040 ------- 0 1.0 3.1 38 62
- 1.48832 1 2 tcp 1040 ------- 0 1.0 3.1 38 62
- 1.494 2 3 tcp 1040 ------- 0 1.0 3.1 20 34
r 1.49832 1 2 tcp 1040 ------- 0 1.0 3.1 37 61
+ 1.49832 2 3 tcp 1040 ------- 0 1.0 3.1 37 61
r 1.50248 1 2 tcp 1040 ------- 0 1.0 3.1 38 62
+ 1.50248 2 3 tcp 1040 ------- 0 1.0 3.1 38 62
r 1.504 2 3 tcp 1040 ------- 0 1.0 3.1 19 33
+ 1.504 3 2 ack 40 ------- 0 3.1 1.0 19 63
- 1.504 3 2 ack 40 ------- 0 3.1 1.0 19 63
r 1.5156 3 2 ack 40 ------- 0 3.1 1.0 19 63
+ 1.5156 2 1 ack 40 ------- 0 3.1 1.0 19 63
- 1.5156 2 1 ack 40 ------- 0 3.1 1.0 19 63
r 1.52576 2 1 ack 40 ------- 0 3.1 1.0 19 63
+ 1.52576 1 2 tcp 1040 ------- 0 1.0 3.1 39 64
- 1.52576 1 2 tcp 1040 ------- 0 1.0 3.1 39 64
- 1.5356 2 3 tcp 1040 ------- 0 1.0 3.1 21 36
r 1.53992 1 2 tcp 1040 ------- 0 1.0 3.1 39 64
+ 1.53992 2 3 tcp 1040 ------- 0 1.0 3.1 39 64
r 1.5456 2 3 tcp 1040 ------- 0 1.0 3.1 20 34
+ 1.5456 3 2 ack 40 ------- 0 3.1 1.0 20 65
- 1.5456 3 2 ack 40 ------- 0 3.1 1.0 20 65
r 1.5572 3 2 ack 40 ------- 0 3.1 1.0 20 65
+ 1.5572 2 1 ack 40 ------- 0 3.1 1.0 20 65
- 1.5572 2 1 ack 40 ------- 0 3.1 1.0 20 65
r 1.56736 2 1 ack 40 ------- 0 3.1 1.0 20 65
+ 1.56736 1 2 tcp 1040 ------- 0 1.0 3.1 40 66
- 1.56736 1 2 tcp 1040 ------- 0 1.0 3.1 40 66
- 1.5772 2 3 tcp 1040 ------- 0 1.0 3.1 22 37
r 1.58152 1 2 tcp 1040 ------- 0 1.0 3.1 40 66
+ 1.58152 2 3 tcp 1040 ------- 0 1.0 3.1 40 66
r 1.5872 2 3 tcp 1040 ------- 0 1.0 3.1 21 36
+ 1.5872 3 2 ack 40 ------- 0 3.1 1.0 21 67
- 1.5872 3 2 ack 40 ------- 0 3.1 1.0 21 67
r 1.5988 3 2 ack 40 ------- 0 3.1 1.0 21 67
+ 1.5988 2 1 ack 40 ------- 0 3.1 1.0 21 67
- 1.5988 2 1 ack 40 ------- 0 3.1 1.0 21 67
r 1.60896 2 1 ack 40 ------- 0 3.1 1.0 21 67
+ 1.60896 1 2 tcp 1040 ------- 0 1.0 3.1 41 68
- 1.60896 1 2 tcp 1040 ------- 0 1.0 3.1 41 68
- 1.6188 2 3 tcp 1040 ------- 0 1.0 3.1 23 39
r 1.62312 1 2 tcp 1040 ------- 0 1.0 3.1 41 68
+ 1.62312 2 3 tcp 1040 ------- 0 1.0 3.1 41 68
r 1.6288 2 3 tcp 1040 ------- 0 1.0 3.1 22 37
+ 1.6288 3 2 ack 40 ------- 0 3.1 1.0 22 69
- 1.6288 3 2 ack 40 ------- 0 3.1 1.0 22 69
r 1.6404 3 2 ack 40 ------- 0 3.1 1.0 22 69
+ 1.6404 2 1 ack 40 ------- 0 3.1 1.0 22 69
- 1.6404 2 1 ack 40 ------- 0 3.1 1.0 22 69
r 1.65056 2 1 ack 40 ------- 0 3.1 1.0 22 69
+ 1.65056 1 2 tcp 1040 ------- 0 1.0 3.1 42 70
- 1.65056 1 2 tcp 1040 ------- 0 1.0 3.1 42 70
- 1.6604 2 3 tcp 1040 ------- 0 1.0 3.1 24 40
r 1.66472 1 2 tcp 1040 ------- 0 1.0 3.1 42 70
+ 1.66472 2 3 tcp 1040 ------- 0 1.0 3.1 42 70
r 1.6704 2 3 tcp 1040 ------- 0 1.0 3.1 23 39
+ 1.6704 3 2 ack 40 ------- 0 3.1 1.0 23 71
- 1.6704 3 2 ack 40 ------- 0 3.1 1.0 23 71
r 1.682 3 2 ack 40 ------- 0 3.1 1.0 23 71
+ 1.682 2 1 ack 40 ------- 0 3.1 1.0 23 71
- 1.682 2 1 ack 40 ------- 0 3.1 1.0 23 71
r 1.69216 2 1 ack 40 ------- 0 3.1 1.0 23 71
+ 1.69216 1 2 tcp 1040 ------- 0 1.0 3.1 43 72
- 1.69216 1 2 tcp 1040 ------- 0 1.0 3.1 43 72
- 1.702 2 3 tcp 1040 ------- 0 1.0 3.1 25 42
r 1.70632 1 2 tcp 1040 ------- 0 1.0 3.1 43 72
+ 1.70632 2 3 tcp 1040 ------- 0 1.0 3.1 43 72
r 1.712 2 3 tcp 1040 ------- 0 1.0 3.1 24 40
+ 1.712 3 2 ack 40 ------- 0 3.1 1.0 24 73
- 1.712 3 2 ack 40 ------- 0 3.1 1.0 24 73
+ 1.721391 0 2 tcp 1040 ---A--- 0 0.0 3.0 2 74
- 1.721391 0 2 tcp 1040 ---A--- 0 0.0 3.0 2 74
r 1.7236 3 2 ack 40 ------- 0 3.1 1.0 24 73
+ 1.7236 2 1 ack 40 ------- 0 3.1 1.0 24 73
- 1.7236 2 1 ack 40 ------- 0 3.1 1.0 24 73
r 1.73376 2 1 ack 40 ------- 0 3.1 1.0 24 73
+ 1.73376 1 2 tcp 1040 ------- 0 1.0 3.1 44 75
- 1.73376 1 2 tcp 1040 ------- 0 1.0 3.1 44 75
r 1.735551 0 2 tcp 1040 ---A--- 0 0.0 3.0 2 74
+ 1.735551 2 3 tcp 1040 ---A--- 0 0.0 3.0 2 74
- 1.7436 2 3 tcp 1040 ------- 0 1.0 3.1 26 43
r 1.74792 1 2 tcp 1040 ------- 0 1.0 3.1 44 75
+ 1.74792 2 3 tcp 1040 ------- 0 1.0 3.1 44 75
r 1.7536 2 3 tcp 1040 ------- 0 1.0 3.1 25 42
+ 1.7536 3 2 ack 40 ------- 0 3.1 1.0 25 76
- 1.7536 3 2 ack 40 ------- 0 3.1 1.0 25 76
r 1.7652 3 2 ack 40 ------- 0 3.1 1.0 25 76
+ 1.7652 2 1 ack 40 ------- 0 3.1 1.0 25 76
- 1.7652 2 1 ack 40 ------- 0 3.1 1.0 25 76
r 1.77536 2 1 ack 40 ------- 0 3.1 1.0 25 76
+ 1.77536 1 2 tcp 1040 ------- 0 1.0 3.1 45 77
- 1.77536 1 2 tcp 1040 ------- 0 1.0 3.1 45 77
- 1.7852 2 3 tcp 1040 ------- 0 1.0 3.1 27 45
r 1.78952 1 2 tcp 1040 ------- 0 1.0 3.1 45 77
+ 1.78952 2 3 tcp 1040 ------- 0 1.0 3.1 45 77
r 1.7952 2 3 tcp 1040 ------- 0 1.0 3.1 26 43
+ 1.7952 3 2 ack 40 ------- 0 3.1 1.0 26 78
- 1.7952 3 2 ack 40 ------- 0 3.1 1.0 26 78
r 1.8068 3 2 ack 40 ------- 0 3.1 1.0 26 78
+ 1.8068 2 1 ack 40 ------- 0 3.1 1.0 26 78
- 1.8068 2 1 ack 40 ------- 0 3.1 1.0 26 78
r 1.81696 2 1 ack 40 ------- 0 3.1 1.0 26 78
+ 1.81696 1 2 tcp 1040 ------- 0 1.0 3.1 46 79
- 1.81696 1 2 tcp 1040 ------- 0 1.0 3.1 46 79
- 1.8268 2 3 tcp 1040 ------- 0 1.0 3.1 28 46
r 1.83112 1 2 tcp 1040 ------- 0 1.0 3.1 46 79
+ 1.83112 2 3 tcp 1040 ------- 0 1.0 3.1 46 79
r 1.8368 2 3 tcp 1040 ------- 0 1.0 3.1 27 45
+ 1.8368 3 2 ack 40 ------- 0 3.1 1.0 27 80
- 1.8368 3 2 ack 40 ------- 0 3.1 1.0 27 80
r 1.8484 3 2 ack 40 ------- 0 3.1 1.0 27 80
+ 1.8484 2 1 ack 40 ------- 0 3.1 1.0 27 80
- 1.8484 2 1 ack 40 ------- 0 3.1 1.0 27 80
r 1.85856 2 1 ack 40 ------- 0 3.1 1.0 27 80
+ 1.85856 1 2 tcp 1040 ------- 0 1.0 3.1 47 81
- 1.85856 1 2 tcp 1040 ------- 0 1.0 3.1 47 81
- 1.8684 2 3 tcp 1040 ------- 0 1.0 3.1 29 48
r 1.87272 1 2 tcp 1040 ------- 0 1.0 3.1 47 81
+ 1.87272 2 3 tcp 1040 ------- 0 1.0 3.1 47 81
r 1.8784 2 3 tcp 1040 ------- 0 1.0 3.1 28 46
+ 1.8784 3 2 ack 40 ------- 0 3.1 1.0 28 82
- 1.8784 3 2 ack 40 ------- 0 3.1 1.0 28 82
r 1.89 3 2 ack 40 ------- 0 3.1 1.0 28 82
+ 1.89 2 1 ack 40 ------- 0 3.1 1.0 28 82
- 1.89 2 1 ack 40 ------- 0 3.1 1.0 28 82
r 1.90016 2 1 ack 40 ------- 0 3.1 1.0 28 82
+ 1.90016 1 2 tcp 1040 ------- 0 1.0 3.1 48 83
- 1.90016 1 2 tcp 1040 ------- 0 1.0 3.1 48 83
- 1.91 2 3 tcp 1040 ------- 0 1.0 3.1 30 49
r 1.91432 1 2 tcp 1040 ------- 0 1.0 3.1 48 83
+ 1.91432 2 3 tcp 1040 ------- 0 1.0 3.1 48 83
r 1.92 2 3 tcp 1040 ------- 0 1.0 3.1 29 48
+ 1.92 3 2 ack 40 ------- 0 3.1 1.0 29 84
- 1.92 3 2 ack 40 ------- 0 3.1 1.0 29 84
r 1.9316 3 2 ack 40 ------- 0 3.1 1.0 29 84
+ 1.9316 2 1 ack 40 ------- 0 3.1 1.0 29 84
- 1.9316 2 1 ack 40 ------- 0 3.1 1.0 29 84
r 1.94176 2 1 ack 40 ------- 0 3.1 1.0 29 84
+ 1.94176 1 2 tcp 1040 ------- 0 1.0 3.1 49 85
- 1.94176 1 2 tcp 1040 ------- 0 1.0 3.1 49 85
- 1.9516 2 3 tcp 1040 ------- 0 1.0 3.1 31 51
r 1.95592 1 2 tcp 1040 ------- 0 1.0 3.1 49 85
+ 1.95592 2 3 tcp 1040 ------- 0 1.0 3.1 49 85
r 1.9616 2 3 tcp 1040 ------- 0 1.0 3.1 30 49
+ 1.9616 3 2 ack 40 ------- 0 3.1 1.0 30 86
- 1.9616 3 2 ack 40 ------- 0 3.1 1.0 30 86
r 1.9732 3 2 ack 40 ------- 0 3.1 1.0 30 86
+ 1.9732 2 1 ack 40 ------- 0 3.1 1.0 30 86
- 1.9732 2 1 ack 40 ------- 0 3.1 1.0 30 86
r 1.98336 2 1 ack 40 ------- 0 3.1 1.0 30 86
+ 1.98336 1 2 tcp 1040 ------- 0 1.0 3.1 50 87
- 1.98336 1 2 tcp 1040 ------- 0 1.0 3.1 50 87
- 1.9932 2 3 tcp 1040 ------- 0 1.0 3.1 32 52
r 1.99752 1 2 tcp 1040 ------- 0 1.0 3.1 50 87
+ 1.99752 2 3 tcp 1040 ------- 0 1.0 3.1 50 87
r 2.0032 2 3 tcp 1040 ------- 0 1.0 3.1 31 51
+ 2.0032 3 2 ack 40 ------- 0 3.1 1.0 31 88
- 2.0032 3 2 ack 40 ------- 0 3.1 1.0 31 88
r 2.0148 3 2 ack 40 ------- 0 3.1 1.0 31 88
+ 2.0148 2 1 ack 40 ------- 0 3.1 1.0 31 88
- 2.0148 2 1 ack 40 ------- 0 3.1 1.0 31 88
r 2.02496 2 1 ack 40 ------- 0 3.1 1.0 31 88
+ 2.02496 1 2 tcp 1040 ------- 0 1.0 3.1 51 89
- 2.02496 1 2 tcp 1040 ------- 0 1.0 3.1 51 89
- 2.0348 2 3 tcp 1040 ------- 0 1.0 3.1 33 54
r 2.03912 1 2 tcp 1040 ------- 0 1.0 3.1 51 89
+ 2.03912 2 3 tcp 1040 ------- 0 1.0 3.1 51 89
r 2.0448 2 3 tcp 1040 ------- 0 1.0 3.1 32 52
+ 2.0448 3 2 ack 40 ------- 0 3.1 1.0 32 90
- 2.0448 3 2 ack 40 ------- 0 3.1 1.0 32 90
r 2.0564 3 2 ack 40 ------- 0 3.1 1.0 32 90
+ 2.0564 2 1 ack 40 ------- 0 3.1 1.0 32 90
- 2.0564 2 1 ack 40 ------- 0 3.1 1.0 32 90
r 2.06656 2 1 ack 40 ------- 0 3.1 1.0 32 90
+ 2.06656 1 2 tcp 1040 ------- 0 1.0 3.1 52 91
- 2.06656 1 2 tcp 1040 ------- 0 1.0 3.1 52 91
- 2.0764 2 3 tcp 1040 ------- 0 1.0 3.1 34 55
r 2.08072 1 2 tcp 1040 ------- 0 1.0 3.1 52 91
+ 2.08072 2 3 tcp 1040 ------- 0 1.0 3.1 52 91
r 2.0864 2 3 tcp 1040 ------- 0 1.0 3.1 33 54
+ 2.0864 3 2 ack 40 ------- 0 3.1 1.0 33 92
- 2.0864 3 2 ack 40 ------- 0 3.1 1.0 33 92
r 2.098 3 2 ack 40 ------- 0 3.1 1.0 33 92
+ 2.098 2 1 ack 40 ------- 0 3.1 1.0 33 92
- 2.098 2 1 ack 40 ------- 0 3.1 1.0 33 92
r 2.10816 2 1 ack 40 ------- 0 3.1 1.0 33 92
+ 2.10816 1 2 tcp 1040 ------- 0 1.0 3.1 53 93
- 2.10816 1 2 tcp 1040 ------- 0 1.0 3.1 53 93
- 2.118 2 3 tcp 1040 ---A--- 0 0.0 3.0 2 57
r 2.12232 1 2 tcp 1040 ------- 0 1.0 3.1 53 93
+ 2.12232 2 3 tcp 1040 ------- 0 1.0 3.1 53 93
r 2.128 2 3 tcp 1040 ------- 0 1.0 3.1 34 55
+ 2.128 3 2 ack 40 ------- 0 3.1 1.0 34 94
- 2.128 3 2 ack 40 ------- 0 3.1 1.0 34 94
r 2.1396 3 2 ack 40 ------- 0 3.1 1.0 34 94
+ 2.1396 2 1 ack 40 ------- 0 3.1 1.0 34 94
- 2.1396 2 1 ack 40 ------- 0 3.1 1.0 34 94
r 2.14976 2 1 ack 40 ------- 0 3.1 1.0 34 94
+ 2.14976 1 2 tcp 1040 ------- 0 1.0 3.1 54 95
- 2.14976 1 2 tcp 1040 ------- 0 1.0 3.1 54 95
- 2.1596 2 3 tcp 1040 ------- 0 1.0 3.1 35 58
r 2.16392 1 2 tcp 1040 ------- 0 1.0 3.1 54 95
+ 2.16392 2 3 tcp 1040 ------- 0 1.0 3.1 54 95
r 2.1696 2 3 tcp 1040 ---A--- 0 0.0 3.0 2 57
+ 2.1696 3 2 ack 40 ------- 0 3.0 0.0 2 96
- 2.1696 3 2 ack 40 ------- 0 3.0 0.0 2 96
r 2.1812 3 2 ack 40 ------- 0 3.0 0.0 2 96
+ 2.1812 2 0 ack 40 ------- 0 3.0 0.0 2 96
- 2.1812 2 0 ack 40 ------- 0 3.0 0.0 2 96
r 2.19136 2 0 ack 40 ------- 0 3.0 0.0 2 96
+ 2.19136 0 2 tcp 1040 ------- 0 0.0 3.0 3 97
- 2.19136 0 2 tcp 1040 ------- 0 0.0 3.0 3 97
- 2.2012 2 3 tcp 1040 ------- 0 1.0 3.1 36 59
r 2.20552 0 2 tcp 1040 ------- 0 0.0 3.0 3 97
+ 2.20552 2 3 tcp 1040 ------- 0 0.0 3.0 3 97
r 2.2112 2 3 tcp 1040 ------- 0 1.0 3.1 35 58
+ 2.2112 3 2 ack 40 ------- 0 3.1 1.0 35 98
- 2.2112 3 2 ack 40 ------- 0 3.1 1.0 35 98
r 2.2228 3 2 ack 40 ------- 0 3.1 1.0 35 98
+ 2.2228 2 1 ack 40 ------- 0 3.1 1.0 35 98
- 2.2228 2 1 ack 40 ------- 0 3.1 1.0 35 98
r 2.23296 2 1 ack 40 ------- 0 3.1 1.0 35 98
+ 2.23296 1 2 tcp 1040 ------- 0 1.0 3.1 55 99
- 2.23296 1 2 tcp 1040 ------- 0 1.0 3.1 55 99
- 2.2428 2 3 tcp 1040 ------- 0 1.0 3.1 37 61
r 2.24712 1 2 tcp 1040 ------- 0 1.0 3.1 55 99
+ 2.24712 2 3 tcp 1040 ------- 0 1.0 3.1 55 99
r 2.2528 2 3 tcp 1040 ------- 0 1.0 3.1 36 59
+ 2.2528 3 2 ack 40 ------- 0 3.1 1.0 36 100
- 2.2528 3 2 ack 40 ------- 0 3.1 1.0 36 100
r 2.2644 3 2 ack 40 ------- 0 3.1 1.0 36 100
+ 2.2644 2 1 ack 40 ------- 0 3.1 1.0 36 100
- 2.2644 2 1 ack 40 ------- 0 3.1 1.0 36 100
r 2.27456 2 1 ack 40 ------- 0 3.1 1.0 36 100
+ 2.27456 1 2 tcp 1040 ------- 0 1.0 3.1 56 101
- 2.27456 1 2 tcp 1040 ------- 0 1.0 3.1 56 101
- 2.2844 2 3 tcp 1040 ------- 0 1.0 3.1 38 62
r 2.28872 1 2 tcp 1040 ------- 0 1.0 3.1 56 101
+ 2.28872 2 3 tcp 1040 ------- 0 1.0 3.1 56 101
r 2.2944 2 3 tcp 1040 ------- 0 1.0 3.1 37 61
+ 2.2944 3 2 ack 40 ------- 0 3.1 1.0 37 102
- 2.2944 3 2 ack 40 ------- 0 3.1 1.0 37 102
r 2.306 3 2 ack 40 ------- 0 3.1 1.0 37 102
+ 2.306 2 1 ack 40 ------- 0 3.1 1.0 37 102
- 2.306 2 1 ack 40 ------- 0 3.1 1.0 37 102
r 2.31616 2 1 ack 40 ------- 0 3.1 1.0 37 102
+ 2.31616 1 2 tcp 1040 ------- 0 1.0 3.1 57 103
- 2.31616 1 2 tcp 1040 ------- 0 1.0 3.1 57 103
- 2.326 2 3 tcp 1040 ------- 0 1.0 3.1 39 64
r 2.33032 1 2 tcp 1040 ------- 0 1.0 3.1 57 103
+ 2.33032 2 3 tcp 1040 ------- 0 1.0 3.1 57 103
r 2.336 2 3 tcp 1040 ------- 0 1.0 3.1 38 62
+ 2.336 3 2 ack 40 ------- 0 3.1 1.0 38 104
- 2.336 3 2 ack 40 ------- 0 3.1 1.0 38 104
r 2.3476 3 2 ack 40 ------- 0 3.1 1.0 38 104
+ 2.3476 2 1 ack 40 ------- 0 3.1 1.0 38 104
- 2.3476 2 1 ack 40 ------- 0 3.1 1.0 38 104
r 2.35776 2 1 ack 40 ------- 0 3.1 1.0 38 104
+ 2.35776 1 2 tcp 1040 ------- 0 1.0 3.1 58 105
- 2.35776 1 2 tcp 1040 ------- 0 1.0 3.1 58 105
- 2.3676 2 3 tcp 1040 ------- 0 1.0 3.1 40 66
r 2.37192 1 2 tcp 1040 ------- 0 1.0 3.1 58 105
+ 2.37192 2 3 tcp 1040 ------- 0 1.0 3.1 58 105
r 2.3776 2 3 tcp 1040 ------- 0 1.0 3.1 39 64
+ 2.3776 3 2 ack 40 ------- 0 3.1 1.0 39 106
- 2.3776 3 2 ack 40 ------- 0 3.1 1.0 39 106
r 2.3892 3 2 ack 40 ------- 0 3.1 1.0 39 106
+ 2.3892 2 1 ack 40 ------- 0 3.1 1.0 39 106
- 2.3892 2 1 ack 40 ------- 0 3.1 1.0 39 106
+ 2.398436 0 2 tcp 1040 ------- 0 0.0 3.0 4 107
- 2.398436 0 2 tcp 1040 ------- 0 0.0 3.0 4 107
r 2.39936 2 1 ack 40 ------- 0 3.1 1.0 39 106
+ 2.39936 1 2 tcp 1040 ------- 0 1.0 3.1 59 108
- 2.39936 1 2 tcp 1040 ------- 0 1.0 3.1 59 108
- 2.4092 2 3 tcp 1040 ------- 0 1.0 3.1 41 68
r 2.412596 0 2 tcp 1040 ------- 0 0.0 3.0 4 107
+ 2.412596 2 3 tcp 1040 ------- 0 0.0 3.0 4 107
r 2.41352 1 2 tcp 1040 ------- 0 1.0 3.1 59 108
+ 2.41352 2 3 tcp 1040 ------- 0 1.0 3.1 59 108
r 2.4192 2 3 tcp 1040 ------- 0 1.0 3.1 40 66
+ 2.4192 3 2 ack 40 ------- 0 3.1 1.0 40 109
- 2.4192 3 2 ack 40 ------- 0 3.1 1.0 40 109
r 2.4308 3 2 ack 40 ------- 0 3.1 1.0 40 109
+ 2.4308 2 1 ack 40 ------- 0 3.1 1.0 40 109
- 2.4308 2 1 ack 40 ------- 0 3.1 1.0 40 109
r 2.44096 2 1 ack 40 ------- 0 3.1 1.0 40 109
+ 2.44096 1 2 tcp 1040 ------- 0 1.0 3.1 60 110
- 2.44096 1 2 tcp 1040 ------- 0 1.0 3.1 60 110
- 2.4508 2 3 tcp 1040 ------- 0 1.0 3.1 42 70
r 2.45512 1 2 tcp 1040 ------- 0 1.0 3.1 60 110
+ 2.45512 2 3 tcp 1040 ------- 0 1.0 3.1 60 110
r 2.4608 2 3 tcp 1040 ------- 0 1.0 3.1 41 68
+ 2.4608 3 2 ack 40 ------- 0 3.1 1.0 41 111
- 2.4608 3 2 ack 40 ------- 0 3.1 1.0 41 111
r 2.4724 3 2 ack 40 ------- 0 3.1 1.0 41 111
+ 2.4724 2 1 ack 40 ------- 0 3.1 1.0 41 111
- 2.4724 2 1 ack 40 ------- 0 3.1 1.0 41 111
r 2.48256 2 1 ack 40 ------- 0 3.1 1.0 41 111
+ 2.48256 1 2 tcp 1040 ------- 0 1.0 3.1 61 112
- 2.48256 1 2 tcp 1040 ------- 0 1.0 3.1 61 112
- 2.4924 2 3 tcp 1040 ------- 0 1.0 3.1 43 72
r 2.49672 1 2 tcp 1040 ------- 0 1.0 3.1 61 112
+ 2.49672 2 3 tcp 1040 ------- 0 1.0 3.1 61 112
r 2.5024 2 3 tcp 1040 ------- 0 1.0 3.1 42 70
+ 2.5024 3 2 ack 40 ------- 0 3.1 1.0 42 113
- 2.5024 3 2 ack 40 ------- 0 3.1 1.0 42 113
r 2.514 3 2 ack 40 ------- 0 3.1 1.0 42 113
+ 2.514 2 1 ack 40 ------- 0 3.1 1.0 42 113
- 2.514 2 1 ack 40 ------- 0 3.1 1.0 42 113
r 2.52416 2 1 ack 40 ------- 0 3.1 1.0 42 113
+ 2.52416 1 2 tcp 1040 ------- 0 1.0 3.1 62 114
- 2.52416 1 2 tcp 1040 ------- 0 1.0 3.1 62 114
- 2.534 2 3 tcp 1040 ---A--- 0 0.0 3.0 2 74
r 2.53832 1 2 tcp 1040 ------- 0 1.0 3.1 62 114
+ 2.53832 2 3 tcp 1040 ------- 0 1.0 3.1 62 114
r 2.544 2 3 tcp 1040 ------- 0 1.0 3.1 43 72
+ 2.544 3 2 ack 40 ------- 0 3.1 1.0 43 115
- 2.544 3 2 ack 40 ------- 0 3.1 1.0 43 115
r 2.5556 3 2 ack 40 ------- 0 3.1 1.0 43 115
+ 2.5556 2 1 ack 40 ------- 0 3.1 1.0 43 115
- 2.5556 2 1 ack 40 ------- 0 3.1 1.0 43 115
r 2.56576 2 1 ack 40 ------- 0 3.1 1.0 43 115
+ 2.56576 1 2 tcp 1040 ------- 0 1.0 3.1 63 116
- 2.56576 1 2 tcp 1040 ------- 0 1.0 3.1 63 116
- 2.5756 2 3 tcp 1040 ------- 0 1.0 3.1 44 75
r 2.57992 1 2 tcp 1040 ------- 0 1.0 3.1 63 116
+ 2.57992 2 3 tcp 1040 ------- 0 1.0 3.1 63 116
r 2.5856 2 3 tcp 1040 ---A--- 0 0.0 3.0 2 74
+ 2.5856 3 2 ack 40 ------- 0 3.0 0.0 2 117
- 2.5856 3 2 ack 40 ------- 0 3.0 0.0 2 117
r 2.5972 3 2 ack 40 ------- 0 3.0 0.0 2 117