V -t * -v 1.0a5 -a 0
A -t * -n 1 -p 0 -o 0x7fffffff -c 30 -a 1
A -t * -h 1 -m 1073741823 -s 0
n -t * -a 0 -s 0 -S UP -v circle -c black -i black
n -t * -a 1 -s 1 -S UP -v circle -c black -i black
n -t * -a 2 -s 2 -S UP -v circle -c black -i black
n -t * -a 3 -s 3 -S UP -v circle -c black -i black
l -t * -s 0 -d 2 -S UP -r 2000000 -D 0.001 -c black
l -t * -s 1 -d 2 -S UP -r 2000000 -D 0.001 -c black
l -t * -s 2 -d 3 -S UP -r 900000 -D 0.01 -c black
+ -t 0.5 -s 0 -d 2 -p tcp -e 40 -c 0 -i 0 -a 0 -x {0.0 3.0 0 ------- null}
- -t 0.5 -s 0 -d 2 -p tcp -e 40 -c 0 -i 0 -a 0 -x {0.0 3.0 0 ------- null}
h -t 0.5 -s 0 -d 2 -p tcp -e 40 -c 0 -i 0 -a 0 -x {0.0 3.0 -1 ------- null}
r -t 0.50116 -s 0 -d 2 -p tcp -e 40 -c 0 -i 0 -a 0 -x {0.0 3.0 0 ------- null}
+ -t 0.50116 -s 2 -d 3 -p tcp -e 40 -c 0 -i 0 -a 0 -x {0.0 3.0 0 ------- null}
- -t 0.50116 -s 2 -d 3 -p tcp -e 40 -c 0 -i 0 -a 0 -x {0.0 3.0 0 ------- null}
h -t 0.50116 -s 2 -d 3 -p tcp -e 40 -c 0 -i 0 -a 0 -x {0.0 3.0 -1 ------- null}
r -t 0.511515555555556 -s 2 -d 3 -p tcp -e 40 -c 0 -i 0 -a 0 -x {0.0 3.0 0 ------- null}
+ -t 0.511515555555556 -s 3 -d 2 -p ack -e 40 -c 0 -i 1 -a 0 -x {3.0 0.0 0 ------- null}
- -t 0.511515555555556 -s 3 -d 2 -p ack -e 40 -c 0 -i 1 -a 0 -x {3.0 0.0 0 ------- null}
h -t 0.511515555555556 -s 3 -d 2 -p ack -e 40 -c 0 -i 1 -a 0 -x {3.0 0.0 -1 ------- null}
r -t 0.521871111111111 -s 3 -d 2 -p ack -e 40 -c 0 -i 1 -a 0 -x {3.0 0.0 0 ------- null}
+ -t 0.521871111111111 -s 2 -d 0 -p ack -e 40 -c 0 -i 1 -a 0 -x {3.0 0.0 0 ------- null}
- -t 0.521871111111111 -s 2 -d 0 -p ack -e 40 -c 0 -i 1 -a 0 -x {3.0 0.0 0 ------- null}
h -t 0.521871111111111 -s 2 -d 0 -p ack -e 40 -c 0 -i 1 -a 0 -x {3.0 0.0 -1 ------- null}
r -t 0.523031111111111 -s 2 -d 0 -p ack -e 40 -c 0 -i 1 -a 0 -x {3.0 0.0 0 ------- null}
+ -t 0.523031111111111 -s 0 -d 2 -p tcp -e 1040 -c 0 -i 2 -a 0 -x {0.0 3.0 1 ------- null}
- -t 0.523031111111111 -s 0 -d 2 -p tcp -e 1040 -c 0 -i 2 -a 0 -x {0.0 3.0 1 ------- null}
h -t 0.523031111111111 -s 0 -d 2 -p tcp -e 1040 -c 0 -i 2 -a 0 -x {0.0 3.0 -1 ------- null}
+ -t 0.523031111111111 -s 0 -d 2 -p tcp -e 1040 -c 0 -i 3 -a 0 -x {0.0 3.0 2 ------- null}
- -t 0.527191111111111 -s 0 -d 2 -p tcp -e 1040 -c 0 -i 3 -a 0 -x {0.0 3.0 2 ------- null}
h -t 0.527191111111111 -s 0 -d 2 -p tcp -e 1040 -c 0 -i 3 -a 0 -x {0.0 3.0 -1 ------- null}
r -t 0.528191111111111 -s 0 -d 2 -p tcp -e 1040 -c 0 -i 2 -a 0 -x {0.0 3.0 1 ------- null}
+ -t 0.528191111111111 -s 2 -d 3 -p tcp -e 1040 -c 0 -i 2 -a 0 -x {0.0 3.0 1 ------- null}
- -t 0.528191111111111 -s 2 -d 3 -p tcp -e 1040 -c 0 -i 2 -a 0 -x {0.0 3.0 1 ------- null}
h -t 0.528191111111111 -s 2 -d 3 -p tcp -e 1040 -c 0 -i 2 -a 0 -x {0.0 3.0 -1 ------- null}
r -t 0.532351111111111 -s 0 -d 2 -p tcp -e 1040 -c 0 -i 3 -a 0 -x {0.0 3.0 2 ------- null}
+ -t 0.532351111111111 -s 2 -d 3 -p tcp -e 1040 -c 0 -i 3 -a 0 -x {0.0 3.0 2 ------- null}
- -t 0.537435555555556 -s 2 -d 3 -p tcp -e 1040 -c 0 -i 3 -a 0 -x {0.0 3.0 2 ------- null}
h -t 0.537435555555556 -s 2 -d 3 -p tcp -e 1040 -c 0 -i 3 -a 0 -x {0.0 3.0 -1 ------- null}
r -t 0.547435555555556 -s 2 -d 3 -p tcp -e 1040 -c 0 -i 2 -a 0 -x {0.0 3.0 1 ------- null}
+ -t 0.547435555555556 -s 3 -d 2 -p ack -e 40 -c 0 -i 4 -a 0 -x {3.0 0.0 1 ------- null}
- -t 0.547435555555556 -s 3 -d 2 -p ack -e 40 -c 0 -i 4 -a 0 -x {3.0 0.0 1 ------- null}
h -t 0.547435555555556 -s 3 -d 2 -p ack -e 40 -c 0 -i 4 -a 0 -x {3.0 0.0 -1 ------- null}
r -t 0.55668 -s 2 -d 3 -p tcp -e 1040 -c 0 -i 3 -a 0 -x {0.0 3.0 2 ------- null}
+ -t 0.55668 -s 3 -d 2 -p ack -e 40 -c 0 -i 5 -a 0 -x {3.0 0.0 2 ------- null}
- -t 0.55668 -s 3 -d 2 -p ack -e 40 -c 0 -i 5 -a 0 -x {3.0 0.0 2 ------- null}
h -t 0.55668 -s 3 -d 2 -p ack -e 40 -c 0 -i 5 -a 0 -x {3.0 0.0 -1 ------- null}
r -t 0.557791111111111 -s 3 -d 2 -p ack -e 40 -c 0 -i 4 -a 0 -x {3.0 0.0 1 ------- null}
+ -t 0.557791111111111 -s 2 -d 0 -p ack -e 40 -c 0 -i 4 -a 0 -x {3.0 0.0 1 ------- null}
- -t 0.557791111111111 -s 2 -d 0 -p ack -e 40 -c 0 -i 4 -a 0 -x {3.0 0.0 1 ------- null}
h -t 0.557791111111111 -s 2 -d 0 -p ack -e 40 -c 0 -i 4 -a 0 -x {3.0 0.0 -1 ------- null}
r -t 0.558951111111111 -s 2 -d 0 -p ack -e 40 -c 0 -i 4 -a 0 -x {3.0 0.0 1 ------- null}
+ -t 0.558951111111111 -s 0 -d 2 -p tcp -e 1040 -c 0 -i 6 -a 0 -x {0.0 3.0 3 ------- null}
- -t 0.558951111111111 -s 0 -d 2 -p tcp -e 1040 -c 0 -i 6 -a 0 -x {0.0 3.0 3 ------- null}
h -t 0.558951111111111 -s 0 -d 2 -p tcp -e 1040 -c 0 -i 6 -a 0 -x {0.0 3.0 -1 ------- null}
+ -t 0.558951111111111 -s 0 -d 2 -p tcp -e 1040 -c 0 -i 7 -a 0 -x {0.0 3.0 4 ------- null}
- -t 0.563111111111111 -s 0 -d 2 -p tcp -e 1040 -c 0 -i 7 -a 0 -x {0.0 3.0 4 ------- null}
h -t 0.563111111111111 -s 0 -d 2 -p tcp -e 1040 -c 0 -i 7 -a 0 -x {0.0 3.0 -1 ------- null}
r -t 0.564111111111111 -s 0 -d 2 -p tcp -e 1040 -c 0 -i 6 -a 0 -x {0.0 3.0 3 ------- null}
+ -t 0.564111111111111 -s 2 -d 3 -p tcp -e 1040 -c 0 -i 6 -a 0 -x {0.0 3.0 3 ------- null}
- -t 0.564111111111111 -s 2 -d 3 -p tcp -e 1040 -c 0 -i 6 -a 0 -x {0.0 3.0 3 ------- null}
h -t 0.564111111111111 -s 2 -d 3 -p tcp -e 1040 -c 0 -i 6 -a 0 -x {0.0 3.0 -1 ------- null}
r -t 0.567035555555556 -s 3 -d 2 -p ack -e 40 -c 0 -i 5 -a 0 -x {3.0 0.0 2 ------- null}
+ -t 0.567035555555556 -s 2 -d 0 -p ack -e 40 -c 0 -i 5 -a 0 -x {3.0 0.0 2 ------- null}
- -t 0.567035555555556 -s 2 -d 0 -p ack -e 40 -c 0 -i 5 -a 0 -x {3.0 0.0 2 ------- null}
h -t 0.567035555555556 -s 2 -d 0 -p ack -e 40 -c 0 -i 5 -a 0 -x {3.0 0.0 -1 ------- null}
r -t 0.568195555555556 -s 2 -d 0 -p ack -e 40 -c 0 -i 5 -a 0 -x {3.0 0.0 2 ------- null}
+ -t 0.568195555555556 -s 0 -d 2 -p tcp -e 1040 -c 0 -i 8 -a 0 -x {0.0 3.0 5 ------- null}
- -t 0.568195555555556 -s 0 -d 2 -p tcp -e 1040 -c 0 -i 8 -a 0 -x {0.0 3.0 5 ------- null}
h -t 0.568195555555556 -s 0 -d 2 -p tcp -e 1040 -c 0 -i 8 -a 0 -x {0.0 3.0 -1 ------- null}
+ -t 0.568195555555556 -s 0 -d 2 -p tcp -e 1040 -c 0 -i 9 -a 0 -x {0.0 3.0 6 ------- null}
r -t 0.568271111111111 -s 0 -d 2 -p tcp -e 1040 -c 0 -i 7 -a 0 -x {0.0 3.0 4 ------- null}
+ -t 0.568271111111111 -s 2 -d 3 -p tcp -e 1040 -c 0 -i 7 -a 0 -x {0.0 3.0 4 ------- null}
- -t 0.572355555555556 -s 0 -d 2 -p tcp -e 1040 -c 0 -i 9 -a 0 -x {0.0 3.0 6 ------- null}
h -t 0.572355555555556 -s 0 -d 2 -p tcp -e 1040 -c 0 -i 9 -a 0 -x {0.0 3.0 -1 ------- null}
r -t 0.573355555555556 -s 0 -d 2 -p tcp -e 1040 -c 0 -i 8 -a 0 -x {0.0 3.0 5 ------- null}
+ -t 0.573355555555556 -s 2 -d 3 -p tcp -e 1040 -c 0 -i 8 -a 0 -x {0.0 3.0 5 ------- null}
- -t 0.573355555555556 -s 2 -d 3 -p tcp -e 1040 -c 0 -i 7 -a 0 -x {0.0 3.0 4 ------- null}
h -t 0.573355555555556 -s 2 -d 3 -p tcp -e 1040 -c 0 -i 7 -a 0 -x {0.0 3.0 -1 ------- null}
r -t 0.577515555555556 -s 0 -d 2 -p tcp -e 1040 -c 0 -i 9 -a 0 -x {0.0 3.0 6 ------- null}
+ -t 0.577515555555556 -s 2 -d 3 -p tcp -e 1040 -c 0 -i 9 -a 0 -x {0.0 3.0 6 ------- null}
- -t 0.5826 -s 2 -d 3 -p tcp -e 1040 -c 0 -i 8 -a 0 -x {0.0 3.0 5 ------- null}
h -t 0.5826 -s 2 -d 3 -p tcp -e 1040 -c 0 -i 8 -a 0 -x {0.0 3.0 -1 ------- null}
r -t 0.583355555555556 -s 2 -d 3 -p tcp -e 1040 -c 0 -i 6 -a 0 -x {0.0 3.0 3 ------- null}
+ -t 0.583355555555556 -s 3 -d 2 -p ack -e 40 -c 0 -i 10 -a 0 -x {3.0 0.0 3 ------- null}
- -t 0.583355555555556 -s 3 -d 2 -p ack -e 40 -c 0 -i 10 -a 0 -x {3.0 0.0 3 ------- null}
h -t 0.583355555555556 -s 3 -d 2 -p ack -e 40 -c 0 -i 10 -a 0 -x {3.0 0.0 -1 ------- null}
- -t 0.591844444444445 -s 2 -d 3 -p tcp -e 1040 -c 0 -i 9 -a 0 -x {0.0 3.0 6 ------- null}
h -t 0.591844444444445 -s 2 -d 3 -p tcp -e 1040 -c 0 -i 9 -a 0 -x {0.0 3.0 -1 ------- null}
r -t 0.5926 -s 2 -d 3 -p tcp -e 1040 -c 0 -i 7 -a 0 -x {0.0 3.0 4 ------- null}
+ -t 0.5926 -s 3 -d 2 -p ack -e 40 -c 0 -i 11 -a 0 -x {3.0 0.0 4 ------- null}
- -t 0.5926 -s 3 -d 2 -p ack -e 40 -c 0 -i 11 -a 0 -x {3.0 0.0 4 ------- null}
h -t 0.5926 -s 3 -d 2 -p ack -e 40 -c 0 -i 11 -a 0 -x {3.0 0.0 -1 ------- null}
r -t 0.593711111111111 -s 3 -d 2 -p ack -e 40 -c 0 -i 10 -a 0 -x {3.0 0.0 3 ------- null}
+ -t 0.593711111111111 -s 2 -d 0 -p ack -e 40 -c 0 -i 10 -a 0 -x {3.0 0.0 3 ------- null}
- -t 0.593711111111111 -s 2 -d 0 -p ack -e 40 -c 0 -i 10 -a 0 -x {3.0 0.0 3 ------- null}
h -t 0.593711111111111 -s 2 -d 0 -p ack -e 40 -c 0 -i 10 -a 0 -x {3.0 0.0 -1 ------- null}
r -t 0.594871111111111 -s 2 -d 0 -p ack -e 40 -c 0 -i 10 -a 0 -x {3.0 0.0 3 ------- null}
+ -t 0.594871111111111 -s 0 -d 2 -p tcp -e 1040 -c 0 -i 12 -a 0 -x {0.0 3.0 7 ------- null}
- -t 0.594871111111111 -s 0 -d 2 -p tcp -e 1040 -c 0 -i 12 -a 0 -x {0.0 3.0 7 ------- null}
h -t 0.594871111111111 -s 0 -d 2 -p tcp -e 1040 -c 0 -i 12 -a 0 -x {0.0 3.0 -1 ------- null}
+ -t 0.594871111111111 -s 0 -d 2 -p tcp -e 1040 -c 0 -i 13 -a 0 -x {0.0 3.0 8 ------- null}
- -t 0.599031111111111 -s 0 -d 2 -p tcp -e 1040 -c 0 -i 13 -a 0 -x {0.0 3.0 8 ------- null}
h -t 0.599031111111111 -s 0 -d 2 -p tcp -e 1040 -c 0 -i 13 -a 0 -x {0.0 3.0 -1 ------- null}
r -t 0.600031111111111 -s 0 -d 2 -p tcp -e 1040 -c 0 -i 12 -a 0 -x {0.0 3.0 7 ------- null}
+ -t 0.600031111111111 -s 2 -d 3 -p tcp -e 1040 -c 0 -i 12 -a 0 -x {0.0 3.0 7 ------- null}
- -t 0.601088888888889 -s 2 -d 3 -p tcp -e 1040 -c 0 -i 12 -a 0 -x {0.0 3.0 7 ------- null}
h -t 0.601088888888889 -s 2 -d 3 -p tcp -e 1040 -c 0 -i 12 -a 0 -x {0.0 3.0 -1 ------- null}
r -t 0.601844444444445 -s 2 -d 3 -p tcp -e 1040 -c 0 -i 8 -a 0 -x {0.0 3.0 5 ------- null}
+ -t 0.601844444444445 -s 3 -d 2 -p ack -e 40 -c 0 -i 14 -a 0 -x {3.0 0.0 5 ------- null}
- -t 0.601844444444445 -s 3 -d 2 -p ack -e 40 -c 0 -i 14 -a 0 -x {3.0 0.0 5 ------- null}
h -t 0.601844444444445 -s 3 -d 2 -p ack -e 40 -c 0 -i 14 -a 0 -x {3.0 0.0 -1 ------- null}
r -t 0.602955555555556 -s 3 -d 2 -p ack -e 40 -c 0 -i 11 -a 0 -x {3.0 0.0 4 ------- null}
+ -t 0.602955555555556 -s 2 -d 0 -p ack -e 40 -c 0 -i 11 -a 0 -x {3.0 0.0 4 ------- null}
- -t 0.602955555555556 -s 2 -d 0 -p ack -e 40 -c 0 -i 11 -a 0 -x {3.0 0.0 4 ------- null}
h -t 0.602955555555556 -s 2 -d 0 -p ack -e 40 -c 0 -i 11 -a 0 -x {3.0 0.0 -1 ------- null}
r -t 0.604115555555556 -s 2 -d 0 -p ack -e 40 -c 0 -i 11 -a 0 -x {3.0 0.0 4 ------- null}
+ -t 0.604115555555556 -s 0 -d 2 -p tcp -e 1040 -c 0 -i 15 -a 0 -x {0.0 3.0 9 ------- null}
- -t 0.604115555555556 -s 0 -d 2 -p tcp -e 1040 -c 0 -i 15 -a 0 -x {0.0 3.0 9 ------- null}
h -t 0.604115555555556 -s 0 -d 2 -p tcp -e 1040 -c 0 -i 15 -a 0 -x {0.0 3.0 -1 ------- null}
+ -t 0.604115555555556 -s 0 -d 2 -p tcp -e 1040 -c 0 -i 16 -a 0 -x {0.0 3.0 10 ------- null}
r -t 0.604191111111111 -s 0 -d 2 -p tcp -e 1040 -c 0 -i 13 -a 0 -x {0.0 3.0 8 ------- null}
+ -t 0.604191111111111 -s 2 -d 3 -p tcp -e 1040 -c 0 -i 13 -a 0 -x {0.0 3.0 8 ------- null}
- -t 0.608275555555556 -s 0 -d 2 -p tcp -e 1040 -c 0 -i 16 -a 0 -x {0.0 3.0 10 ------- null}
h -t 0.608275555555556 -s 0 -d 2 -p tcp -e 1040 -c 0 -i 16 -a 0 -x {0.0 3.0 -1 ------- null}
r -t 0.609275555555556 -s 0 -d 2 -p tcp -e 1040 -c 0 -i 15 -a 0 -x {0.0 3.0 9 ------- null}
+ -t 0.609275555555556 -s 2 -d 3 -p tcp -e 1040 -c 0 -i 15 -a 0 -x {0.0 3.0 9 ------- null}
- -t 0.610333333333333 -s 2 -d 3 -p tcp -e 1040 -c 0 -i 13 -a 0 -x {0.0 3.0 8 ------- null}
h -t 0.610333333333333 -s 2 -d 3 -p tcp -e 1040 -c 0 -i 13 -a 0 -x {0.0 3.0 -1 ------- null}
r -t 0.611088888888889 -s 2 -d 3 -p tcp -e 1040 -c 0 -i 9 -a 0 -x {0.0 3.0 6 ------- null}
+ -t 0.611088888888889 -s 3 -d 2 -p ack -e 40 -c 0 -i 17 -a 0 -x {3.0 0.0 6 ------- null}
- -t 0.611088888888889 -s 3 -d 2 -p ack -e 40 -c 0 -i 17 -a 0 -x {3.0 0.0 6 ------- null}
h -t 0.611088888888889 -s 3 -d 2 -p ack -e 40 -c 0 -i 17 -a 0 -x {3.0 0.0 -1 ------- null}
r -t 0.6122 -s 3 -d 2 -p ack -e 40 -c 0 -i 14 -a 0 -x {3.0 0.0 5 ------- null}
+ -t 0.6122 -s 2 -d 0 -p ack -e 40 -c 0 -i 14 -a 0 -x {3.0 0.0 5 ------- null}
- -t 0.6122 -s 2 -d 0 -p ack -e 40 -c 0 -i 14 -a 0 -x {3.0 0.0 5 ------- null}
h -t 0.6122 -s 2 -d 0 -p ack -e 40 -c 0 -i 14 -a 0 -x {3.0 0.0 -1 ------- null}
r -t 0.61336 -s 2 -d 0 -p ack -e 40 -c 0 -i 14 -a 0 -x {3.0 0.0 5 ------- null}
+ -t 0.61336 -s 0 -d 2 -p tcp -e 1040 -c 0 -i 18 -a 0 -x {0.0 3.0 11 ------- null}
- -t 0.61336 -s 0 -d 2 -p tcp -e 1040 -c 0 -i 18 -a 0 -x {0.0 3.0 11 ------- null}
h -t 0.61336 -s 0 -d 2 -p tcp -e 1040 -c 0 -i 18 -a 0 -x {0.0 3.0 -1 ------- null}
+ -t 0.61336 -s 0 -d 2 -p tcp -e 1040 -c 0 -i 19 -a 0 -x {0.0 3.0 12 ------- null}
r -t 0.613435555555556 -s 0 -d 2 -p tcp -e 1040 -c 0 -i 16 -a 0 -x {0.0 3.0 10 ------- null}
+ -t 0.613435555555556 -s 2 -d 3 -p tcp -e 1040 -c 0 -i 16 -a 0 -x {0.0 3.0 10 ------- null}
- -t 0.61752 -s 0 -d 2 -p tcp -e 1040 -c 0 -i 19 -a 0 -x {0.0 3.0 12 ------- null}
h -t 0.61752 -s 0 -d 2 -p tcp -e 1040 -c 0 -i 19 -a 0 -x {0.0 3.0 -1 ------- null}
r -t 0.61852 -s 0 -d 2 -p tcp -e 1040 -c 0 -i 18 -a 0 -x {0.0 3.0 11 ------- null}
+ -t 0.61852 -s 2 -d 3 -p tcp -e 1040 -c 0 -i 18 -a 0 -x {0.0 3.0 11 ------- null}
- -t 0.619577777777778 -s 2 -d 3 -p tcp -e 1040 -c 0 -i 15 -a 0 -x {0.0 3.0 9 ------- null}
h -t 0.619577777777778 -s 2 -d 3 -p tcp -e 1040 -c 0 -i 15 -a 0 -x {0.0 3.0 -1 ------- null}
r -t 0.620333333333333 -s 2 -d 3 -p tcp -e 1040 -c 0 -i 12 -a 0 -x {0.0 3.0 7 ------- null}
+ -t 0.620333333333333 -s 3 -d 2 -p ack -e 40 -c 0 -i 20 -a 0 -x {3.0 0.0 7 ------- null}
- -t 0.620333333333333 -s 3 -d 2 -p ack -e 40 -c 0 -i 20 -a 0 -x {3.0 0.0 7 ------- null}
h -t 0.620333333333333 -s 3 -d 2 -p ack -e 40 -c 0 -i 20 -a 0 -x {3.0 0.0 -1 ------- null}
r -t 0.621444444444445 -s 3 -d 2 -p ack -e 40 -c 0 -i 17 -a 0 -x {3.0 0.0 6 ------- null}
+ -t 0.621444444444445 -s 2 -d 0 -p ack -e 40 -c 0 -i 17 -a 0 -x {3.0 0.0 6 ------- null}
- -t 0.621444444444445 -s 2 -d 0 -p ack -e 40 -c 0 -i 17 -a 0 -x {3.0 0.0 6 ------- null}
h -t 0.621444444444445 -s 2 -d 0 -p ack -e 40 -c 0 -i 17 -a 0 -x {3.0 0.0 -1 ------- null}
r -t 0.622604444444445 -s 2 -d 0 -p ack -e 40 -c 0 -i 17 -a 0 -x {3.0 0.0 6 ------- null}
+ -t 0.622604444444445 -s 0 -d 2 -p tcp -e 1040 -c 0 -i 21 -a 0 -x {0.0 3.0 13 ------- null}
- -t 0.622604444444445 -s 0 -d 2 -p tcp -e 1040 -c 0 -i 21 -a 0 -x {0.0 3.0 13 ------- null}
h -t 0.622604444444445 -s 0 -d 2 -p tcp -e 1040 -c 0 -i 21 -a 0 -x {0.0 3.0 -1 ------- null}
+ -t 0.622604444444445 -s 0 -d 2 -p tcp -e 1040 -c 0 -i 22 -a 0 -x {0.0 3.0 14 ------- null}
r -t 0.62268 -s 0 -d 2 -p tcp -e 1040 -c 0 -i 19 -a 0 -x {0.0 3.0 12 ------- null}
+ -t 0.62268 -s 2 -d 3 -p tcp -e 1040 -c 0 -i 19 -a 0 -x {0.0 3.0 12 ------- null}
- -t 0.626764444444445 -s 0 -d 2 -p tcp -e 1040 -c 0 -i 22 -a 0 -x {0.0 3.0 14 ------- null}
h -t 0.626764444444445 -s 0 -d 2 -p tcp -e 1040 -c 0 -i 22 -a 0 -x {0.0 3.0 -1 ------- null}
r -t 0.627764444444445 -s 0 -d 2 -p tcp -e 1040 -c 0 -i 21 -a 0 -x {0.0 3.0 13 ------- null}
+ -t 0.627764444444445 -s 2 -d 3 -p tcp -e 1040 -c 0 -i 21 -a 0 -x {0.0 3.0 13 ------- null}
- -t 0.628822222222222 -s 2 -d 3 -p tcp -e 1040 -c 0 -i 16 -a 0 -x {0.0 3.0 10 ------- null}
h -t 0.628822222222222 -s 2 -d 3 -p tcp -e 1040 -c 0 -i 16 -a 0 -x {0.0 3.0 -1 ------- null}
r -t 0.629577777777778 -s 2 -d 3 -p tcp -e 1040 -c 0 -i 13 -a 0 -x {0.0 3.0 8 ------- null}
+ -t 0.629577777777778 -s 3 -d 2 -p ack -e 40 -c 0 -i 23 -a 0 -x {3.0 0.0 8 ------- null}
- -t 0.629577777777778 -s 3 -d 2 -p ack -e 40 -c 0 -i 23 -a 0 -x {3.0 0.0 8 ------- null}
h -t 0.629577777777778 -s 3 -d 2 -p ack -e 40 -c 0 -i 23 -a 0 -x {3.0 0.0 -1 ------- null}
r -t 0.630688888888889 -s 3 -d 2 -p ack -e 40 -c 0 -i 20 -a 0 -x {3.0 0.0 7 ------- null}
+ -t 0.630688888888889 -s 2 -d 0 -p ack -e 40 -c 0 -i 20 -a 0 -x {3.0 0.0 7 ------- null}
- -t 0.630688888888889 -s 2 -d 0 -p ack -e 40 -c 0 -i 20 -a 0 -x {3.0 0.0 7 ------- null}
h -t 0.630688888888889 -s 2 -d 0 -p ack -e 40 -c 0 -i 20 -a 0 -x {3.0 0.0 -1 ------- null}
r -t 0.631848888888889 -s 2 -d 0 -p ack -e 40 -c 0 -i 20 -a 0 -x {3.0 0.0 7 ------- null}
+ -t 0.631848888888889 -s 0 -d 2 -p tcp -e 1040 -c 0 -i 24 -a 0 -x {0.0 3.0 15 ------- null}
- -t 0.631848888888889 -s 0 -d 2 -p tcp -e 1040 -c 0 -i 24 -a 0 -x {0.0 3.0 15 ------- null}
h -t 0.631848888888889 -s 0 -d 2 -p tcp -e 1040 -c 0 -i 24 -a 0 -x {0.0 3.0 -1 ------- null}
+ -t 0.631848888888889 -s 0 -d 2 -p tcp -e 1040 -c 0 -i 25 -a 0 -x {0.0 3.0 16 ------- null}
r -t 0.631924444444445 -s 0 -d 2 -p tcp -e 1040 -c 0 -i 22 -a 0 -x {0.0 3.0 14 ------- null}
+ -t 0.631924444444445 -s 2 -d 3 -p tcp -e 1040 -c 0 -i 22 -a 0 -x {0.0 3.0 14 ------- null}
- -t 0.636008888888889 -s 0 -d 2 -p tcp -e 1040 -c 0 -i 25 -a 0 -x {0.0 3.0 16 ------- null}
h -t 0.636008888888889 -s 0 -d 2 -p tcp -e 1040 -c 0 -i 25 -a 0 -x {0.0 3.0 -1 ------- null}
r -t 0.637008888888889 -s 0 -d 2 -p tcp -e 1040 -c 0 -i 24 -a 0 -x {0.0 3.0 15 ------- null}
+ -t 0.637008888888889 -s 2 -d 3 -p tcp -e 1040 -c 0 -i 24 -a 0 -x {0.0 3.0 15 ------- null}
- -t 0.638066666666667 -s 2 -d 3 -p tcp -e 1040 -c 0 -i 18 -a 0 -x {0.0 3.0 11 ------- null}
h -t 0.638066666666667 -s 2 -d 3 -p tcp -e 1040 -c 0 -i 18 -a 0 -x {0.0 3.0 -1 ------- null}
r -t 0.638822222222222 -s 2 -d 3 -p tcp -e 1040 -c 0 -i 15 -a 0 -x {0.0 3.0 9 ------- null}
+ -t 0.638822222222222 -s 3 -d 2 -p ack -e 40 -c 0 -i 26 -a 0 -x {3.0 0.0 9 ------- null}
- -t 0.638822222222222 -s 3 -d 2 -p ack -e 40 -c 0 -i 26 -a 0 -x {3.0 0.0 9 ------- null}
h -t 0.638822222222222 -s 3 -d 2 -p ack -e 40 -c 0 -i 26 -a 0 -x {3.0 0.0 -1 ------- null}
r -t 0.639933333333333 -s 3 -d 2 -p ack -e 40 -c 0 -i 23 -a 0 -x {3.0 0.0 8 ------- null}
+ -t 0.639933333333333 -s 2 -d 0 -p ack -e 40 -c 0 -i 23 -a 0 -x {3.0 0.0 8 ------- null}
- -t 0.639933333333333 -s 2 -d 0 -p ack -e 40 -c 0 -i 23 -a 0 -x {3.0 0.0 8 ------- null}
h -t 0.639933333333333 -s 2 -d 0 -p ack -e 40 -c 0 -i 23 -a 0 -x {3.0 0.0 -1 ------- null}
r -t 0.641093333333333 -s 2 -d 0 -p ack -e 40 -c 0 -i 23 -a 0 -x {3.0 0.0 8 ------- null}
+ -t 0.641093333333333 -s 0 -d 2 -p tcp -e 1040 -c 0 -i 27 -a 0 -x {0.0 3.0 17 ------- null}
- -t 0.641093333333333 -s 0 -d 2 -p tcp -e 1040 -c 0 -i 27 -a 0 -x {0.0 3.0 17 ------- null}
h -t 0.641093333333333 -s 0 -d 2 -p tcp -e 1040 -c 0 -i 27 -a 0 -x {0.0 3.0 -1 ------- null}
+ -t 0.641093333333333 -s 0 -d 2 -p tcp -e 1040 -c 0 -i 28 -a 0 -x {0.0 3.0 18 ------- null}
r -t 0.641168888888889 -s 0 -d 2 -p tcp -e 1040 -c 0 -i 25 -a 0 -x {0.0 3.0 16 ------- null}
+ -t 0.641168888888889 -s 2 -d 3 -p tcp -e 1040 -c 0 -i 25 -a 0 -x {0.0 3.0 16 ------- null}
- -t 0.645253333333333 -s 0 -d 2 -p tcp -e 1040 -c 0 -i 28 -a 0 -x {0.0 3.0 18 ------- null}
h -t 0.645253333333333 -s 0 -d 2 -p tcp -e 1040 -c 0 -i 28 -a 0 -x {0.0 3.0 -1 ------- null}
r -t 0.646253333333333 -s 0 -d 2 -p tcp -e 1040 -c 0 -i 27 -a 0 -x {0.0 3.0 17 ------- null}
+ -t 0.646253333333333 -s 2 -d 3 -p tcp -e 1040 -c 0 -i 27 -a 0 -x {0.0 3.0 17 ------- null}
- -t 0.647311111111111 -s 2 -d 3 -p tcp -e 1040 -c 0 -i 19 -a 0 -x {0.0 3.0 12 ------- null}
h -t 0.647311111111111 -s 2 -d 3 -p tcp -e 1040 -c 0 -i 19 -a 0 -x {0.0 3.0 -1 ------- null}
r -t 0.648066666666667 -s 2 -d 3 -p tcp -e 1040 -c 0 -i 16 -a 0 -x {0.0 3.0 10 ------- null}
+ -t 0.648066666666667 -s 3 -d 2 -p ack -e 40 -c 0 -i 29 -a 0 -x {3.0 0.0 10 ------- null}
- -t 0.648066666666667 -s 3 -d 2 -p ack -e 40 -c 0 -i 29 -a 0 -x {3.0 0.0 10 ------- null}
h -t 0.648066666666667 -s 3 -d 2 -p ack -e 40 -c 0 -i 29 -a 0 -x {3.0 0.0 -1 ------- null}
r -t 0.649177777777778 -s 3 -d 2 -p ack -e 40 -c 0 -i 26 -a 0 -x {3.0 0.0 9 ------- null}
+ -t 0.649177777777778 -s 2 -d 0 -p ack -e 40 -c 0 -i 26 -a 0 -x {3.0 0.0 9 ------- null}
- -t 0.649177777777778 -s 2 -d 0 -p ack -e 40 -c 0 -i 26 -a 0 -x {3.0 0.0 9 ------- null}
h -t 0.649177777777778 -s 2 -d 0 -p ack -e 40 -c 0 -i 26 -a 0 -x {3.0 0.0 -1 ------- null}
r -t 0.650337777777778 -s 2 -d 0 -p ack -e 40 -c 0 -i 26 -a 0 -x {3.0 0.0 9 ------- null}
+ -t 0.650337777777778 -s 0 -d 2 -p tcp -e 1040 -c 0 -i 30 -a 0 -x {0.0 3.0 19 ------- null}
- -t 0.650337777777778 -s 0 -d 2 -p tcp -e 1040 -c 0 -i 30 -a 0 -x {0.0 3.0 19 ------- null}
h -t 0.650337777777778 -s 0 -d 2 -p tcp -e 1040 -c 0 -i 30 -a 0 -x {0.0 3.0 -1 ------- null}
+ -t 0.650337777777778 -s 0 -d 2 -p tcp -e 1040 -c 0 -i 31 -a 0 -x {0.0 3.0 20 ------- null}
r -t 0.650413333333334 -s 0 -d 2 -p tcp -e 1040 -c 0 -i 28 -a 0 -x {0.0 3.0 18 ------- null}
+ -t 0.650413333333334 -s 2 -d 3 -p tcp -e 1040 -c 0 -i 28 -a 0 -x {0.0 3.0 18 ------- null}
- -t 0.654497777777778 -s 0 -d 2 -p tcp -e 1040 -c 0 -i 31 -a 0 -x {0.0 3.0 20 ------- null}
h -t 0.654497777777778 -s 0 -d 2 -p tcp -e 1040 -c 0 -i 31 -a 0 -x {0.0 3.0 -1 ------- null}
r -t 0.655497777777778 -s 0 -d 2 -p tcp -e 1040 -c 0 -i 30 -a 0 -x {0.0 3.0 19 ------- null}
+ -t 0.655497777777778 -s 2 -d 3 -p tcp -e 1040 -c 0 -i 30 -a 0 -x {0.0 3.0 19 ------- null}
- -t 0.656555555555555 -s 2 -d 3 -p tcp -e 1040 -c 0 -i 21 -a 0 -x {0.0 3.0 13 ------- null}
h -t 0.656555555555555 -s 2 -d 3 -p tcp -e 1040 -c 0 -i 21 -a 0 -x {0.0 3.0 -1 ------- null}
r -t 0.657311111111111 -s 2 -d 3 -p tcp -e 1040 -c 0 -i 18 -a 0 -x {0.0 3.0 11 ------- null}
+ -t 0.657311111111111 -s 3 -d 2 -p ack -e 40 -c 0 -i 32 -a 0 -x {3.0 0.0 11 ------- null}
- -t 0.657311111111111 -s 3 -d 2 -p ack -e 40 -c 0 -i 32 -a 0 -x {3.0 0.0 11 ------- null}
h -t 0.657311111111111 -s 3 -d 2 -p ack -e 40 -c 0 -i 32 -a 0 -x {3.0 0.0 -1 ------- null}
r -t 0.658422222222222 -s 3 -d 2 -p ack -e 40 -c 0 -i 29 -a 0 -x {3.0 0.0 10 ------- null}
+ -t 0.658422222222222 -s 2 -d 0 -p ack -e 40 -c 0 -i 29 -a 0 -x {3.0 0.0 10 ------- null}
- -t 0.658422222222222 -s 2 -d 0 -p ack -e 40 -c 0 -i 29 -a 0 -x {3.0 0.0 10 ------- null}
h -t 0.658422222222222 -s 2 -d 0 -p ack -e 40 -c 0 -i 29 -a 0 -x {3.0 0.0 -1 ------- null}
r -t 0.659582222222222 -s 2 -d 0 -p ack -e 40 -c 0 -i 29 -a 0 -x {3.0 0.0 10 ------- null}
+ -t 0.659582222222222 -s 0 -d 2 -p tcp -e 1040 -c 0 -i 33 -a 0 -x {0.0 3.0 21 ------- null}
- -t 0.659582222222222 -s 0 -d 2 -p tcp -e 1040 -c 0 -i 33 -a 0 -x {0.0 3.0 21 ------- null}
h -t 0.659582222222222 -s 0 -d 2 -p tcp -e 1040 -c 0 -i 33 -a 0 -x {0.0 3.0 -1 ------- null}
+ -t 0.659582222222222 -s 0 -d 2 -p tcp -e 1040 -c 0 -i 34 -a 0 -x {0.0 3.0 22 ------- null}
r -t 0.659657777777778 -s 0 -d 2 -p tcp -e 1040 -c 0 -i 31 -a 0 -x {0.0 3.0 20 ------- null}
+ -t 0.659657777777778 -s 2 -d 3 -p tcp -e 1040 -c 0 -i 31 -a 0 -x {0.0 3.0 20 ------- null}
- -t 0.663742222222222 -s 0 -d 2 -p tcp -e 1040 -c 0 -i 34 -a 0 -x {0.0 3.0 22 ------- null}
h -t 0.663742222222222 -s 0 -d 2 -p tcp -e 1040 -c 0 -i 34 -a 0 -x {0.0 3.0 -1 ------- null}
r -t 0.664742222222222 -s 0 -d 2 -p tcp -e 1040 -c 0 -i 33 -a 0 -x {0.0 3.0 21 ------- null}
+ -t 0.664742222222222 -s 2 -d 3 -p tcp -e 1040 -c 0 -i 33 -a 0 -x {0.0 3.0 21 ------- null}
- -t 0.6658 -s 2 -d 3 -p tcp -e 1040 -c 0 -i 22 -a 0 -x {0.0 3.0 14 ------- null}
h -t 0.6658 -s 2 -d 3 -p tcp -e 1040 -c 0 -i 22 -a 0 -x {0.0 3.0 -1 ------- null}
r -t 0.666555555555555 -s 2 -d 3 -p tcp -e 1040 -c 0 -i 19 -a 0 -x {0.0 3.0 12 ------- null}
+ -t 0.666555555555555 -s 3 -d 2 -p ack -e 40 -c 0 -i 35 -a 0 -x {3.0 0.0 12 ------- null}
- -t 0.666555555555555 -s 3 -d 2 -p ack -e 40 -c 0 -i 35 -a 0 -x {3.0 0.0 12 ------- null}
h -t 0.666555555555555 -s 3 -d 2 -p ack -e 40 -c 0 -i 35 -a 0 -x {3.0 0.0 -1 ------- null}
r -t 0.667666666666667 -s 3 -d 2 -p ack -e 40 -c 0 -i 32 -a 0 -x {3.0 0.0 11 ------- null}
+ -t 0.667666666666667 -s 2 -d 0 -p ack -e 40 -c 0 -i 32 -a 0 -x {3.0 0.0 11 ------- null}
- -t 0.667666666666667 -s 2 -d 0 -p ack -e 40 -c 0 -i 32 -a 0 -x {3.0 0.0 11 ------- null}
h -t 0.667666666666667 -s 2 -d 0 -p ack -e 40 -c 0 -i 32 -a 0 -x {3.0 0.0 -1 ------- null}
r -t 0.668826666666667 -s 2 -d 0 -p ack -e 40 -c 0 -i 32 -a 0 -x {3.0 0.0 11 ------- null}
+ -t 0.668826666666667 -s 0 -d 2 -p tcp -e 1040 -c 0 -i 36 -a 0 -x {0.0 3.0 23 ------- null}
- -t 0.668826666666667 -s 0 -d 2 -p tcp -e 1040 -c 0 -i 36 -a 0 -x {0.0 3.0 23 ------- null}
h -t 0.668826666666667 -s 0 -d 2 -p tcp -e 1040 -c 0 -i 36 -a 0 -x {0.0 3.0 -1 ------- null}
+ -t 0.668826666666667 -s 0 -d 2 -p tcp -e 1040 -c 0 -i 37 -a 0 -x {0.0 3.0 24 ------- null}
r -t 0.668902222222222 -s 0 -d 2 -p tcp -e 1040 -c 0 -i 34 -a 0 -x {0.0 3.0 22 ------- null}
+ -t 0.668902222222222 -s 2 -d 3 -p tcp -e 1040 -c 0 -i 34 -a 0 -x {0.0 3.0 22 ------- null}
- -t 0.672986666666667 -s 0 -d 2 -p tcp -e 1040 -c 0 -i 37 -a 0 -x {0.0 3.0 24 ------- null}
h -t 0.672986666666667 -s 0 -d 2 -p tcp -e 1040 -c 0 -i 37 -a 0 -x {0.0 3.0 -1 ------- null}
r -t 0.673986666666667 -s 0 -d 2 -p tcp -e 1040 -c 0 -i 36 -a 0 -x {0.0 3.0 23 ------- null}
+ -t 0.673986666666667 -s 2 -d 3 -p tcp -e 1040 -c 0 -i 36 -a 0 -x {0.0 3.0 23 ------- null}
- -t 0.675044444444444 -s 2 -d 3 -p tcp -e 1040 -c 0 -i 24 -a 0 -x {0.0 3.0 15 ------- null}
h -t 0.675044444444444 -s 2 -d 3 -p tcp -e 1040 -c 0 -i 24 -a 0 -x {0.0 3.0 -1 ------- null}
r -t 0.6758 -s 2 -d 3 -p tcp -e 1040 -c 0 -i 21 -a 0 -x {0.0 3.0 13 ------- null}
+ -t 0.6758 -s 3 -d 2 -p ack -e 40 -c 0 -i 38 -a 0 -x {3.0 0.0 13 ------- null}
- -t 0.6758 -s 3 -d 2 -p ack -e 40 -c 0 -i 38 -a 0 -x {3.0 0.0 13 ------- null}
h -t 0.6758 -s 3 -d 2 -p ack -e 40 -c 0 -i 38 -a 0 -x {3.0 0.0 -1 ------- null}
r -t 0.676911111111111 -s 3 -d 2 -p ack -e 40 -c 0 -i 35 -a 0 -x {3.0 0.0 12 ------- null}
+ -t 0.676911111111111 -s 2 -d 0 -p ack -e 40 -c 0 -i 35 -a 0 -x {3.0 0.0 12 ------- null}
- -t 0.676911111111111 -s 2 -d 0 -p ack -e 40 -c 0 -i 35 -a 0 -x {3.0 0.0 12 ------- null}
h -t 0.676911111111111 -s 2 -d 0 -p ack -e 40 -c 0 -i 35 -a 0 -x {3.0 0.0 -1 ------- null}
r -t 0.678071111111111 -s 2 -d 0 -p ack -e 40 -c 0 -i 35 -a 0 -x {3.0 0.0 12 ------- null}
+ -t 0.678071111111111 -s 0 -d 2 -p tcp -e 1040 -c 0 -i 39 -a 0 -x {0.0 3.0 25 ------- null}
- -t 0.678071111111111 -s 0 -d 2 -p tcp -e 1040 -c 0 -i 39 -a 0 -x {0.0 3.0 25 ------- null}
h -t 0.678071111111111 -s 0 -d 2 -p tcp -e 1040 -c 0 -i 39 -a 0 -x {0.0 3.0 -1 ------- null}
+ -t 0.678071111111111 -s 0 -d 2 -p tcp -e 1040 -c 0 -i 40 -a 0 -x {0.0 3.0 26 ------- null}
r -t 0.678146666666667 -s 0 -d 2 -p tcp -e 1040 -c 0 -i 37 -a 0 -x {0.0 3.0 24 ------- null}
+ -t 0.678146666666667 -s 2 -d 3 -p tcp -e 1040 -c 0 -i 37 -a 0 -x {0.0 3.0 24 ------- null}
- -t 0.682231111111111 -s 0 -d 2 -p tcp -e 1040 -c 0 -i 40 -a 0 -x {0.0 3.0 26 ------- null}
h -t 0.682231111111111 -s 0 -d 2 -p tcp -e 1040 -c 0 -i 40 -a 0 -x {0.0 3.0 -1 ------- null}
r -t 0.683231111111111 -s 0 -d 2 -p tcp -e 1040 -c 0 -i 39 -a 0 -x {0.0 3.0 25 ------- null}
+ -t 0.683231111111111 -s 2 -d 3 -p tcp -e 1040 -c 0 -i 39 -a 0 -x {0.0 3.0 25 ------- null}
- -t 0.684288888888889 -s 2 -d 3 -p tcp -e 1040 -c 0 -i 25 -a 0 -x {0.0 3.0 16 ------- null}
h -t 0.684288888888889 -s 2 -d 3 -p tcp -e 1040 -c 0 -i 25 -a 0 -x {0.0 3.0 -1 ------- null}
r -t 0.685044444444444 -s 2 -d 3 -p tcp -e 1040 -c 0 -i 22 -a 0 -x {0.0 3.0 14 ------- null}
+ -t 0.685044444444444 -s 3 -d 2 -p ack -e 40 -c 0 -i 41 -a 0 -x {3.0 0.0 14 ------- null}
- -t 0.685044444444444 -s 3 -d 2 -p ack -e 40 -c 0 -i 41 -a 0 -x {3.0 0.0 14 ------- null}
h -t 0.685044444444444 -s 3 -d 2 -p ack -e 40 -c 0 -i 41 -a 0 -x {3.0 0.0 -1 ------- null}
r -t 0.686155555555555 -s 3 -d 2 -p ack -e 40 -c 0 -i 38 -a 0 -x {3.0 0.0 13 ------- null}
+ -t 0.686155555555555 -s 2 -d 0 -p ack -e 40 -c 0 -i 38 -a 0 -x {3.0 0.0 13 ------- null}
- -t 0.686155555555555 -s 2 -d 0 -p ack -e 40 -c 0 -i 38 -a 0 -x {3.0 0.0 13 ------- null}
h -t 0.686155555555555 -s 2 -d 0 -p ack -e 40 -c 0 -i 38 -a 0 -x {3.0 0.0 -1 ------- null}
r -t 0.687315555555555 -s 2 -d 0 -p ack -e 40 -c 0 -i 38 -a 0 -x {3.0 0.0 13 ------- null}
+ -t 0.687315555555555 -s 0 -d 2 -p tcp -e 1040 -c 0 -i 42 -a 0 -x {0.0 3.0 27 ------- null}
- -t 0.687315555555555 -s 0 -d 2 -p tcp -e 1040 -c 0 -i 42 -a 0 -x {0.0 3.0 27 ------- null}
h -t 0.687315555555555 -s 0 -d 2 -p tcp -e 1040 -c 0 -i 42 -a 0 -x {0.0 3.0 -1 ------- null}
+ -t 0.687315555555555 -s 0 -d 2 -p tcp -e 1040 -c 0 -i 43 -a 0 -x {0.0 3.0 28 ------- null}
r -t 0.687391111111111 -s 0 -d 2 -p tcp -e 1040 -c 0 -i 40 -a 0 -x {0.0 3.0 26 ------- null}
+ -t 0.687391111111111 -s 2 -d 3 -p tcp -e 1040 -c 0 -i 40 -a 0 -x {0.0 3.0 26 ------- null}
- -t 0.691475555555555 -s 0 -d 2 -p tcp -e 1040 -c 0 -i 43 -a 0 -x {0.0 3.0 28 ------- null}
h -t 0.691475555555555 -s 0 -d 2 -p tcp -e 1040 -c 0 -i 43 -a 0 -x {0.0 3.0 -1 ------- null}
r -t 0.692475555555555 -s 0 -d 2 -p tcp -e 1040 -c 0 -i 42 -a 0 -x {0.0 3.0 27 ------- null}
+ -t 0.692475555555555 -s 2 -d 3 -p tcp -e 1040 -c 0 -i 42 -a 0 -x {0.0 3.0 27 ------- null}
- -t 0.693533333333333 -s 2 -d 3 -p tcp -e 1040 -c 0 -i 27 -a 0 -x {0.0 3.0 17 ------- null}
h -t 0.693533333333333 -s 2 -d 3 -p tcp -e 1040 -c 0 -i 27 -a 0 -x {0.0 3.0 -1 ------- null}
r -t 0.694288888888889 -s 2 -d 3 -p tcp -e 1040 -c 0 -i 24 -a 0 -x {0.0 3.0 15 ------- null}
+ -t 0.694288888888889 -s 3 -d 2 -p ack -e 40 -c 0 -i 44 -a 0 -x {3.0 0.0 15 ------- null}
- -t 0.694288888888889 -s 3 -d 2 -p ack -e 40 -c 0 -i 44 -a 0 -x {3.0 0.0 15 ------- null}
h -t 0.694288888888889 -s 3 -d 2 -p ack -e 40 -c 0 -i 44 -a 0 -x {3.0 0.0 -1 ------- null}
r -t 0.6954 -s 3 -d 2 -p ack -e 40 -c 0 -i 41 -a 0 -x {3.0 0.0 14 ------- null}
+ -t 0.6954 -s 2 -d 0 -p ack -e 40 -c 0 -i 41 -a 0 -x {3.0 0.0 14 ------- null}
- -t 0.6954 -s 2 -d 0 -p ack -e 40 -c 0 -i 41 -a 0 -x {3.0 0.0 14 ------- null}
h -t 0.6954 -s 2 -d 0 -p ack -e 40 -c 0 -i 41 -a 0 -x {3.0 0.0 -1 ------- null}
r -t 0.69656 -s 2 -d 0 -p ack -e 40 -c 0 -i 41 -a 0 -x {3.0 0.0 14 ------- null}
+ -t 0.69656 -s 0 -d 2 -p tcp -e 1040 -c 0 -i 45 -a 0 -x {0.0 3.0 29 ------- null}
- -t 0.69656 -s 0 -d 2 -p tcp -e 1040 -c 0 -i 45 -a 0 -x {0.0 3.0 29 ------- null}
h -t 0.69656 -s 0 -d 2 -p tcp -e 1040 -c 0 -i 45 -a 0 -x {0.0 3.0 -1 ------- null}
+ -t 0.69656 -s 0 -d 2 -p tcp -e 1040 -c 0 -i 46 -a 0 -x {0.0 3.0 30 ------- null}
r -t 0.696635555555555 -s 0 -d 2 -p tcp -e 1040 -c 0 -i 43 -a 0 -x {0.0 3.0 28 ------- null}
+ -t 0.696635555555555 -s 2 -d 3 -p tcp -e 1040 -c 0 -i 43 -a 0 -x {0.0 3.0 28 ------- null}
- -t 0.70072 -s 0 -d 2 -p tcp -e 1040 -c 0 -i 46 -a 0 -x {0.0 3.0 30 ------- null}
h -t 0.70072 -s 0 -d 2 -p tcp -e 1040 -c 0 -i 46 -a 0 -x {0.0 3.0 -1 ------- null}
r -t 0.70172 -s 0 -d 2 -p tcp -e 1040 -c 0 -i 45 -a 0 -x {0.0 3.0 29 ------- null}
+ -t 0.70172 -s 2 -d 3 -p tcp -e 1040 -c 0 -i 45 -a 0 -x {0.0 3.0 29 ------- null}