+ 0.5 0 2 tcp 40 ------- 0 0.0 3.0 0 0
- 0.5 0 2 tcp 40 ------- 0 0.0 3.0 0 0
r 0.50116 0 2 tcp 40 ------- 0 0.0 3.0 0 0
+ 0.50116 2 3 tcp 40 ------- 0 0.0 3.0 0 0
- 0.50116 2 3 tcp 40 ------- 0 0.0 3.0 0 0
r 0.511516 2 3 tcp 40 ------- 0 0.0 3.0 0 0
+ 0.511516 3 2 ack 40 ------- 0 3.0 0.0 0 1
- 0.511516 3 2 ack 40 ------- 0 3.0 0.0 0 1
r 0.521871 3 2 ack 40 ------- 0 3.0 0.0 0 1
+ 0.521871 2 0 ack 40 ------- 0 3.0 0.0 0 1
- 0.521871 2 0 ack 40 ------- 0 3.0 0.0 0 1
r 0.523031 2 0 ack 40 ------- 0 3.0 0.0 0 1
+ 0.523031 0 2 tcp 1040 ------- 0 0.0 3.0 1 2
- 0.523031 0 2 tcp 1040 ------- 0 0.0 3.0 1 2
+ 0.523031 0 2 tcp 1040 ------- 0 0.0 3.0 2 3
- 0.527191 0 2 tcp 1040 ------- 0 0.0 3.0 2 3
r 0.528191 0 2 tcp 1040 ------- 0 0.0 3.0 1 2
+ 0.528191 2 3 tcp 1040 ------- 0 0.0 3.0 1 2
- 0.528191 2 3 tcp 1040 ------- 0 0.0 3.0 1 2
r 0.532351 0 2 tcp 1040 ------- 0 0.0 3.0 2 3
+ 0.532351 2 3 tcp 1040 ------- 0 0.0 3.0 2 3
- 0.537436 2 3 tcp 1040 ------- 0 0.0 3.0 2 3
r 0.547436 2 3 tcp 1040 ------- 0 0.0 3.0 1 2
+ 0.547436 3 2 ack 40 ------- 0 3.0 0.0 1 4
- 0.547436 3 2 ack 40 ------- 0 3.0 0.0 1 4
r 0.55668 2 3 tcp 1040 ------- 0 0.0 3.0 2 3
+ 0.55668 3 2 ack 40 ------- 0 3.0 0.0 2 5
- 0.55668 3 2 ack 40 ------- 0 3.0 0.0 2 5
r 0.557791 3 2 ack 40 ------- 0 3.0 0.0 1 4
+ 0.557791 2 0 ack 40 ------- 0 3.0 0.0 1 4
- 0.557791 2 0 ack 40 ------- 0 3.0 0.0 1 4
r 0.558951 2 0 ack 40 ------- 0 3.0 0.0 1 4
+ 0.558951 0 2 tcp 1040 ------- 0 0.0 3.0 3 6
- 0.558951 0 2 tcp 1040 ------- 0 0.0 3.0 3 6
+ 0.558951 0 2 tcp 1040 ------- 0 0.0 3.0 4 7
- 0.563111 0 2 tcp 1040 ------- 0 0.0 3.0 4 7
r 0.564111 0 2 tcp 1040 ------- 0 0.0 3.0 3 6
+ 0.564111 2 3 tcp 1040 ------- 0 0.0 3.0 3 6
- 0.564111 2 3 tcp 1040 ------- 0 0.0 3.0 3 6
r 0.567036 3 2 ack 40 ------- 0 3.0 0.0 2 5
+ 0.567036 2 0 ack 40 ------- 0 3.0 0.0 2 5
- 0.567036 2 0 ack 40 ------- 0 3.0 0.0 2 5
r 0.568196 2 0 ack 40 ------- 0 3.0 0.0 2 5
+ 0.568196 0 2 tcp 1040 ------- 0 0.0 3.0 5 8
- 0.568196 0 2 tcp 1040 ------- 0 0.0 3.0 5 8
+ 0.568196 0 2 tcp 1040 ------- 0 0.0 3.0 6 9
r 0.568271 0 2 tcp 1040 ------- 0 0.0 3.0 4 7
+ 0.568271 2 3 tcp 1040 ------- 0 0.0 3.0 4 7
- 0.572356 0 2 tcp 1040 ------- 0 0.0 3.0 6 9
r 0.573356 0 2 tcp 1040 ------- 0 0.0 3.0 5 8
+ 0.573356 2 3 tcp 1040 ------- 0 0.0 3.0 5 8
- 0.573356 2 3 tcp 1040 ------- 0 0.0 3.0 4 7
r 0.577516 0 2 tcp 1040 ------- 0 0.0 3.0 6 9
+ 0.577516 2 3 tcp 1040 ------- 0 0.0 3.0 6 9
- 0.5826 2 3 tcp 1040 ------- 0 0.0 3.0 5 8
r 0.583356 2 3 tcp 1040 ------- 0 0.0 3.0 3 6
+ 0.583356 3 2 ack 40 ------- 0 3.0 0.0 3 10
- 0.583356 3 2 ack 40 ------- 0 3.0 0.0 3 10
- 0.591844 2 3 tcp 1040 ------- 0 0.0 3.0 6 9
r 0.5926 2 3 tcp 1040 ------- 0 0.0 3.0 4 7
+ 0.5926 3 2 ack 40 ------- 0 3.0 0.0 4 11
- 0.5926 3 2 ack 40 ------- 0 3.0 0.0 4 11
r 0.593711 3 2 ack 40 ------- 0 3.0 0.0 3 10
+ 0.593711 2 0 ack 40 ------- 0 3.0 0.0 3 10
- 0.593711 2 0 ack 40 ------- 0 3.0 0.0 3 10
r 0.594871 2 0 ack 40 ------- 0 3.0 0.0 3 10
+ 0.594871 0 2 tcp 1040 ------- 0 0.0 3.0 7 12
- 0.594871 0 2 tcp 1040 ------- 0 0.0 3.0 7 12
+ 0.594871 0 2 tcp 1040 ------- 0 0.0 3.0 8 13
- 0.599031 0 2 tcp 1040 ------- 0 0.0 3.0 8 13
r 0.600031 0 2 tcp 1040 ------- 0 0.0 3.0 7 12
+ 0.600031 2 3 tcp 1040 ------- 0 0.0 3.0 7 12
- 0.601089 2 3 tcp 1040 ------- 0 0.0 3.0 7 12
r 0.601844 2 3 tcp 1040 ------- 0 0.0 3.0 5 8
+ 0.601844 3 2 ack 40 ------- 0 3.0 0.0 5 14
- 0.601844 3 2 ack 40 ------- 0 3.0 0.0 5 14
r 0.602956 3 2 ack 40 ------- 0 3.0 0.0 4 11
+ 0.602956 2 0 ack 40 ------- 0 3.0 0.0 4 11
- 0.602956 2 0 ack 40 ------- 0 3.0 0.0 4 11
r 0.604116 2 0 ack 40 ------- 0 3.0 0.0 4 11
+ 0.604116 0 2 tcp 1040 ------- 0 0.0 3.0 9 15
- 0.604116 0 2 tcp 1040 ------- 0 0.0 3.0 9 15
+ 0.604116 0 2 tcp 1040 ------- 0 0.0 3.0 10 16
r 0.604191 0 2 tcp 1040 ------- 0 0.0 3.0 8 13
+ 0.604191 2 3 tcp 1040 ------- 0 0.0 3.0 8 13
- 0.608276 0 2 tcp 1040 ------- 0 0.0 3.0 10 16
r 0.609276 0 2 tcp 1040 ------- 0 0.0 3.0 9 15
+ 0.609276 2 3 tcp 1040 ------- 0 0.0 3.0 9 15
- 0.610333 2 3 tcp 1040 ------- 0 0.0 3.0 8 13
r 0.611089 2 3 tcp 1040 ------- 0 0.0 3.0 6 9
+ 0.611089 3 2 ack 40 ------- 0 3.0 0.0 6 17
- 0.611089 3 2 ack 40 ------- 0 3.0 0.0 6 17
r 0.6122 3 2 ack 40 ------- 0 3.0 0.0 5 14
+ 0.6122 2 0 ack 40 ------- 0 3.0 0.0 5 14
- 0.6122 2 0 ack 40 ------- 0 3.0 0.0 5 14
r 0.61336 2 0 ack 40 ------- 0 3.0 0.0 5 14
+ 0.61336 0 2 tcp 1040 ------- 0 0.0 3.0 11 18
- 0.61336 0 2 tcp 1040 ------- 0 0.0 3.0 11 18
+ 0.61336 0 2 tcp 1040 ------- 0 0.0 3.0 12 19
r 0.613436 0 2 tcp 1040 ------- 0 0.0 3.0 10 16
+ 0.613436 2 3 tcp 1040 ------- 0 0.0 3.0 10 16
- 0.61752 0 2 tcp 1040 ------- 0 0.0 3.0 12 19
r 0.61852 0 2 tcp 1040 ------- 0 0.0 3.0 11 18
+ 0.61852 2 3 tcp 1040 ------- 0 0.0 3.0 11 18
- 0.619578 2 3 tcp 1040 ------- 0 0.0 3.0 9 15
r 0.620333 2 3 tcp 1040 ------- 0 0.0 3.0 7 12
+ 0.620333 3 2 ack 40 ------- 0 3.0 0.0 7 20
- 0.620333 3 2 ack 40 ------- 0 3.0 0.0 7 20
r 0.621444 3 2 ack 40 ------- 0 3.0 0.0 6 17
+ 0.621444 2 0 ack 40 ------- 0 3.0 0.0 6 17
- 0.621444 2 0 ack 40 ------- 0 3.0 0.0 6 17
r 0.622604 2 0 ack 40 ------- 0 3.0 0.0 6 17
+ 0.622604 0 2 tcp 1040 ------- 0 0.0 3.0 13 21
- 0.622604 0 2 tcp 1040 ------- 0 0.0 3.0 13 21
+ 0.622604 0 2 tcp 1040 ------- 0 0.0 3.0 14 22
r 0.62268 0 2 tcp 1040 ------- 0 0.0 3.0 12 19
+ 0.62268 2 3 tcp 1040 ------- 0 0.0 3.0 12 19
- 0.626764 0 2 tcp 1040 ------- 0 0.0 3.0 14 22
r 0.627764 0 2 tcp 1040 ------- 0 0.0 3.0 13 21
+ 0.627764 2 3 tcp 1040 ------- 0 0.0 3.0 13 21
- 0.628822 2 3 tcp 1040 ------- 0 0.0 3.0 10 16
r 0.629578 2 3 tcp 1040 ------- 0 0.0 3.0 8 13
+ 0.629578 3 2 ack 40 ------- 0 3.0 0.0 8 23
- 0.629578 3 2 ack 40 ------- 0 3.0 0.0 8 23
r 0.630689 3 2 ack 40 ------- 0 3.0 0.0 7 20
+ 0.630689 2 0 ack 40 ------- 0 3.0 0.0 7 20
- 0.630689 2 0 ack 40 ------- 0 3.0 0.0 7 20
r 0.631849 2 0 ack 40 ------- 0 3.0 0.0 7 20
+ 0.631849 0 2 tcp 1040 ------- 0 0.0 3.0 15 24
- 0.631849 0 2 tcp 1040 ------- 0 0.0 3.0 15 24
+ 0.631849 0 2 tcp 1040 ------- 0 0.0 3.0 16 25
r 0.631924 0 2 tcp 1040 ------- 0 0.0 3.0 14 22
+ 0.631924 2 3 tcp 1040 ------- 0 0.0 3.0 14 22
- 0.636009 0 2 tcp 1040 ------- 0 0.0 3.0 16 25
r 0.637009 0 2 tcp 1040 ------- 0 0.0 3.0 15 24
+ 0.637009 2 3 tcp 1040 ------- 0 0.0 3.0 15 24
- 0.638067 2 3 tcp 1040 ------- 0 0.0 3.0 11 18
r 0.638822 2 3 tcp 1040 ------- 0 0.0 3.0 9 15
+ 0.638822 3 2 ack 40 ------- 0 3.0 0.0 9 26
- 0.638822 3 2 ack 40 ------- 0 3.0 0.0 9 26
r 0.639933 3 2 ack 40 ------- 0 3.0 0.0 8 23
+ 0.639933 2 0 ack 40 ------- 0 3.0 0.0 8 23
- 0.639933 2 0 ack 40 ------- 0 3.0 0.0 8 23
r 0.641093 2 0 ack 40 ------- 0 3.0 0.0 8 23
+ 0.641093 0 2 tcp 1040 ------- 0 0.0 3.0 17 27
- 0.641093 0 2 tcp 1040 ------- 0 0.0 3.0 17 27
+ 0.641093 0 2 tcp 1040 ------- 0 0.0 3.0 18 28
r 0.641169 0 2 tcp 1040 ------- 0 0.0 3.0 16 25
+ 0.641169 2 3 tcp 1040 ------- 0 0.0 3.0 16 25
- 0.645253 0 2 tcp 1040 ------- 0 0.0 3.0 18 28
r 0.646253 0 2 tcp 1040 ------- 0 0.0 3.0 17 27
+ 0.646253 2 3 tcp 1040 ------- 0 0.0 3.0 17 27
- 0.647311 2 3 tcp 1040 ------- 0 0.0 3.0 12 19
r 0.648067 2 3 tcp 1040 ------- 0 0.0 3.0 10 16
+ 0.648067 3 2 ack 40 ------- 0 3.0 0.0 10 29
- 0.648067 3 2 ack 40 ------- 0 3.0 0.0 10 29
r 0.649178 3 2 ack 40 ------- 0 3.0 0.0 9 26
+ 0.649178 2 0 ack 40 ------- 0 3.0 0.0 9 26
- 0.649178 2 0 ack 40 ------- 0 3.0 0.0 9 26
r 0.650338 2 0 ack 40 ------- 0 3.0 0.0 9 26
+ 0.650338 0 2 tcp 1040 ------- 0 0.0 3.0 19 30
- 0.650338 0 2 tcp 1040 ------- 0 0.0 3.0 19 30
+ 0.650338 0 2 tcp 1040 ------- 0 0.0 3.0 20 31
r 0.650413 0 2 tcp 1040 ------- 0 0.0 3.0 18 28
+ 0.650413 2 3 tcp 1040 ------- 0 0.0 3.0 18 28
- 0.654498 0 2 tcp 1040 ------- 0 0.0 3.0 20 31
r 0.655498 0 2 tcp 1040 ------- 0 0.0 3.0 19 30
+ 0.655498 2 3 tcp 1040 ------- 0 0.0 3.0 19 30
- 0.656556 2 3 tcp 1040 ------- 0 0.0 3.0 13 21
r 0.657311 2 3 tcp 1040 ------- 0 0.0 3.0 11 18
+ 0.657311 3 2 ack 40 ------- 0 3.0 0.0 11 32
- 0.657311 3 2 ack 40 ------- 0 3.0 0.0 11 32
r 0.658422 3 2 ack 40 ------- 0 3.0 0.0 10 29
+ 0.658422 2 0 ack 40 ------- 0 3.0 0.0 10 29
- 0.658422 2 0 ack 40 ------- 0 3.0 0.0 10 29
r 0.659582 2 0 ack 40 ------- 0 3.0 0.0 10 29
+ 0.659582 0 2 tcp 1040 ------- 0 0.0 3.0 21 33
- 0.659582 0 2 tcp 1040 ------- 0 0.0 3.0 21 33
+ 0.659582 0 2 tcp 1040 ------- 0 0.0 3.0 22 34
r 0.659658 0 2 tcp 1040 ------- 0 0.0 3.0 20 31
+ 0.659658 2 3 tcp 1040 ------- 0 0.0 3.0 20 31
- 0.663742 0 2 tcp 1040 ------- 0 0.0 3.0 22 34
r 0.664742 0 2 tcp 1040 ------- 0 0.0 3.0 21 33
+ 0.664742 2 3 tcp 1040 ------- 0 0.0 3.0 21 33
- 0.6658 2 3 tcp 1040 ------- 0 0.0 3.0 14 22
r 0.666556 2 3 tcp 1040 ------- 0 0.0 3.0 12 19
+ 0.666556 3 2 ack 40 ------- 0 3.0 0.0 12 35
- 0.666556 3 2 ack 40 ------- 0 3.0 0.0 12 35
r 0.667667 3 2 ack 40 ------- 0 3.0 0.0 11 32
+ 0.667667 2 0 ack 40 ------- 0 3.0 0.0 11 32
- 0.667667 2 0 ack 40 ------- 0 3.0 0.0 11 32
r 0.668827 2 0 ack 40 ------- 0 3.0 0.0 11 32
+ 0.668827 0 2 tcp 1040 ------- 0 0.0 3.0 23 36
- 0.668827 0 2 tcp 1040 ------- 0 0.0 3.0 23 36
+ 0.668827 0 2 tcp 1040 ------- 0 0.0 3.0 24 37
r 0.668902 0 2 tcp 1040 ------- 0 0.0 3.0 22 34
+ 0.668902 2 3 tcp 1040 ------- 0 0.0 3.0 22 34
- 0.672987 0 2 tcp 1040 ------- 0 0.0 3.0 24 37
r 0.673987 0 2 tcp 1040 ------- 0 0.0 3.0 23 36
+ 0.673987 2 3 tcp 1040 ------- 0 0.0 3.0 23 36
- 0.675044 2 3 tcp 1040 ------- 0 0.0 3.0 15 24
r 0.6758 2 3 tcp 1040 ------- 0 0.0 3.0 13 21
+ 0.6758 3 2 ack 40 ------- 0 3.0 0.0 13 38
- 0.6758 3 2 ack 40 ------- 0 3.0 0.0 13 38
r 0.676911 3 2 ack 40 ------- 0 3.0 0.0 12 35
+ 0.676911 2 0 ack 40 ------- 0 3.0 0.0 12 35
- 0.676911 2 0 ack 40 ------- 0 3.0 0.0 12 35
r 0.678071 2 0 ack 40 ------- 0 3.0 0.0 12 35
+ 0.678071 0 2 tcp 1040 ------- 0 0.0 3.0 25 39
- 0.678071 0 2 tcp 1040 ------- 0 0.0 3.0 25 39
+ 0.678071 0 2 tcp 1040 ------- 0 0.0 3.0 26 40
r 0.678147 0 2 tcp 1040 ------- 0 0.0 3.0 24 37
+ 0.678147 2 3 tcp 1040 ------- 0 0.0 3.0 24 37
- 0.682231 0 2 tcp 1040 ------- 0 0.0 3.0 26 40
r 0.683231 0 2 tcp 1040 ------- 0 0.0 3.0 25 39
+ 0.683231 2 3 tcp 1040 ------- 0 0.0 3.0 25 39
- 0.684289 2 3 tcp 1040 ------- 0 0.0 3.0 16 25
r 0.685044 2 3 tcp 1040 ------- 0 0.0 3.0 14 22
+ 0.685044 3 2 ack 40 ------- 0 3.0 0.0 14 41
- 0.685044 3 2 ack 40 ------- 0 3.0 0.0 14 41
r 0.686156 3 2 ack 40 ------- 0 3.0 0.0 13 38
+ 0.686156 2 0 ack 40 ------- 0 3.0 0.0 13 38
- 0.686156 2 0 ack 40 ------- 0 3.0 0.0 13 38
r 0.687316 2 0 ack 40 ------- 0 3.0 0.0 13 38
+ 0.687316 0 2 tcp 1040 ------- 0 0.0 3.0 27 42
- 0.687316 0 2 tcp 1040 ------- 0 0.0 3.0 27 42
+ 0.687316 0 2 tcp 1040 ------- 0 0.0 3.0 28 43
r 0.687391 0 2 tcp 1040 ------- 0 0.0 3.0 26 40
+ 0.687391 2 3 tcp 1040 ------- 0 0.0 3.0 26 40
- 0.691476 0 2 tcp 1040 ------- 0 0.0 3.0 28 43
r 0.692476 0 2 tcp 1040 ------- 0 0.0 3.0 27 42
+ 0.692476 2 3 tcp 1040 ------- 0 0.0 3.0 27 42
- 0.693533 2 3 tcp 1040 ------- 0 0.0 3.0 17 27
r 0.694289 2 3 tcp 1040 ------- 0 0.0 3.0 15 24
+ 0.694289 3 2 ack 40 ------- 0 3.0 0.0 15 44
- 0.694289 3 2 ack 40 ------- 0 3.0 0.0 15 44
r 0.6954 3 2 ack 40 ------- 0 3.0 0.0 14 41
+ 0.6954 2 0 ack 40 ------- 0 3.0 0.0 14 41
- 0.6954 2 0 ack 40 ------- 0 3.0 0.0 14 41
r 0.69656 2 0 ack 40 ------- 0 3.0 0.0 14 41
+ 0.69656 0 2 tcp 1040 ------- 0 0.0 3.0 29 45
- 0.69656 0 2 tcp 1040 ------- 0 0.0 3.0 29 45
+ 0.69656 0 2 tcp 1040 ------- 0 0.0 3.0 30 46
r 0.696636 0 2 tcp 1040 ------- 0 0.0 3.0 28 43
+ 0.696636 2 3 tcp 1040 ------- 0 0.0 3.0 28 43
- 0.70072 0 2 tcp 1040 ------- 0 0.0 3.0 30 46
r 0.70172 0 2 tcp 1040 ------- 0 0.0 3.0 29 45
+ 0.70172 2 3 tcp 1040 ------- 0 0.0 3.0 29 45
- 0.702778 2 3 tcp 1040 ------- 0 0.0 3.0 18 28
r 0.703533 2 3 tcp 1040 ------- 0 0.0 3.0 16 25
+ 0.703533 3 2 ack 40 ------- 0 3.0 0.0 16 47
- 0.703533 3 2 ack 40 ------- 0 3.0 0.0 16 47
r 0.704644 3 2 ack 40 ------- 0 3.0 0.0 15 44
+ 0.704644 2 0 ack 40 ------- 0 3.0 0.0 15 44
- 0.704644 2 0 ack 40 ------- 0 3.0 0.0 15 44
r 0.705804 2 0 ack 40 ------- 0 3.0 0.0 15 44
+ 0.705804 0 2 tcp 1040 ------- 0 0.0 3.0 31 48
- 0.705804 0 2 tcp 1040 ------- 0 0.0 3.0 31 48
+ 0.705804 0 2 tcp 1040 ------- 0 0.0 3.0 32 49
r 0.70588 0 2 tcp 1040 ------- 0 0.0 3.0 30 46
+ 0.70588 2 3 tcp 1040 ------- 0 0.0 3.0 30 46
- 0.709964 0 2 tcp 1040 ------- 0 0.0 3.0 32 49
r 0.710964 0 2 tcp 1040 ------- 0 0.0 3.0 31 48
+ 0.710964 2 3 tcp 1040 ------- 0 0.0 3.0 31 48
- 0.712022 2 3 tcp 1040 ------- 0 0.0 3.0 19 30
r 0.712778 2 3 tcp 1040 ------- 0 0.0 3.0 17 27
+ 0.712778 3 2 ack 40 ------- 0 3.0 0.0 17 50
- 0.712778 3 2 ack 40 ------- 0 3.0 0.0 17 50
r 0.713889 3 2 ack 40 ------- 0 3.0 0.0 16 47
+ 0.713889 2 0 ack 40 ------- 0 3.0 0.0 16 47
- 0.713889 2 0 ack 40 ------- 0 3.0 0.0 16 47
r 0.715049 2 0 ack 40 ------- 0 3.0 0.0 16 47
+ 0.715049 0 2 tcp 1040 ------- 0 0.0 3.0 33 51
- 0.715049 0 2 tcp 1040 ------- 0 0.0 3.0 33 51
+ 0.715049 0 2 tcp 1040 ------- 0 0.0 3.0 34 52
r 0.715124 0 2 tcp 1040 ------- 0 0.0 3.0 32 49
+ 0.715124 2 3 tcp 1040 ------- 0 0.0 3.0 32 49
- 0.719209 0 2 tcp 1040 ------- 0 0.0 3.0 34 52
r 0.720209 0 2 tcp 1040 ------- 0 0.0 3.0 33 51
+ 0.720209 2 3 tcp 1040 ------- 0 0.0 3.0 33 51
- 0.721267 2 3 tcp 1040 ------- 0 0.0 3.0 20 31
r 0.722022 2 3 tcp 1040 ------- 0 0.0 3.0 18 28
+ 0.722022 3 2 ack 40 ------- 0 3.0 0.0 18 53
- 0.722022 3 2 ack 40 ------- 0 3.0 0.0 18 53
r 0.723133 3 2 ack 40 ------- 0 3.0 0.0 17 50
+ 0.723133 2 0 ack 40 ------- 0 3.0 0.0 17 50
- 0.723133 2 0 ack 40 ------- 0 3.0 0.0 17 50
r 0.724293 2 0 ack 40 ------- 0 3.0 0.0 17 50
+ 0.724293 0 2 tcp 1040 ------- 0 0.0 3.0 35 54
- 0.724293 0 2 tcp 1040 ------- 0 0.0 3.0 35 54
+ 0.724293 0 2 tcp 1040 ------- 0 0.0 3.0 36 55
r 0.724369 0 2 tcp 1040 ------- 0 0.0 3.0 34 52
+ 0.724369 2 3 tcp 1040 ------- 0 0.0 3.0 34 52
- 0.728453 0 2 tcp 1040 ------- 0 0.0 3.0 36 55
r 0.729453 0 2 tcp 1040 ------- 0 0.0 3.0 35 54
+ 0.729453 2 3 tcp 1040 ------- 0 0.0 3.0 35 54
- 0.730511 2 3 tcp 1040 ------- 0 0.0 3.0 21 33
r 0.731267 2 3 tcp 1040 ------- 0 0.0 3.0 19 30
+ 0.731267 3 2 ack 40 ------- 0 3.0 0.0 19 56
- 0.731267 3 2 ack 40 ------- 0 3.0 0.0 19 56
r 0.732378 3 2 ack 40 ------- 0 3.0 0.0 18 53
+ 0.732378 2 0 ack 40 ------- 0 3.0 0.0 18 53
- 0.732378 2 0 ack 40 ------- 0 3.0 0.0 18 53
r 0.733538 2 0 ack 40 ------- 0 3.0 0.0 18 53
+ 0.733538 0 2 tcp 1040 ------- 0 0.0 3.0 37 57
- 0.733538 0 2 tcp 1040 ------- 0 0.0 3.0 37 57
+ 0.733538 0 2 tcp 1040 ------- 0 0.0 3.0 38 58
r 0.733613 0 2 tcp 1040 ------- 0 0.0 3.0 36 55
+ 0.733613 2 3 tcp 1040 ------- 0 0.0 3.0 36 55
- 0.737698 0 2 tcp 1040 ------- 0 0.0 3.0 38 58
r 0.738698 0 2 tcp 1040 ------- 0 0.0 3.0 37 57
+ 0.738698 2 3 tcp 1040 ------- 0 0.0 3.0 37 57
- 0.739756 2 3 tcp 1040 ------- 0 0.0 3.0 22 34
r 0.740511 2 3 tcp 1040 ------- 0 0.0 3.0 20 31
+ 0.740511 3 2 ack 40 ------- 0 3.0 0.0 20 59
- 0.740511 3 2 ack 40 ------- 0 3.0 0.0 20 59
r 0.741622 3 2 ack 40 ------- 0 3.0 0.0 19 56
+ 0.741622 2 0 ack 40 ------- 0 3.0 0.0 19 56
- 0.741622 2 0 ack 40 ------- 0 3.0 0.0 19 56
r 0.742782 2 0 ack 40 ------- 0 3.0 0.0 19 56
+ 0.742782 0 2 tcp 1040 ------- 0 0.0 3.0 39 60
- 0.742782 0 2 tcp 1040 ------- 0 0.0 3.0 39 60
r 0.742858 0 2 tcp 1040 ------- 0 0.0 3.0 38 58
+ 0.742858 2 3 tcp 1040 ------- 0 0.0 3.0 38 58
r 0.747942 0 2 tcp 1040 ------- 0 0.0 3.0 39 60
+ 0.747942 2 3 tcp 1040 ------- 0 0.0 3.0 39 60
- 0.749 2 3 tcp 1040 ------- 0 0.0 3.0 23 36
r 0.749756 2 3 tcp 1040 ------- 0 0.0 3.0 21 33
+ 0.749756 3 2 ack 40 ------- 0 3.0 0.0 21 61
- 0.749756 3 2 ack 40 ------- 0 3.0 0.0 21 61
r 0.750867 3 2 ack 40 ------- 0 3.0 0.0 20 59
+ 0.750867 2 0 ack 40 ------- 0 3.0 0.0 20 59
- 0.750867 2 0 ack 40 ------- 0 3.0 0.0 20 59
r 0.752027 2 0 ack 40 ------- 0 3.0 0.0 20 59
+ 0.752027 0 2 tcp 1040 ------- 0 0.0 3.0 40 62
- 0.752027 0 2 tcp 1040 ------- 0 0.0 3.0 40 62
r 0.757187 0 2 tcp 1040 ------- 0 0.0 3.0 40 62
+ 0.757187 2 3 tcp 1040 ------- 0 0.0 3.0 40 62
- 0.758244 2 3 tcp 1040 ------- 0 0.0 3.0 24 37
r 0.759 2 3 tcp 1040 ------- 0 0.0 3.0 22 34
+ 0.759 3 2 ack 40 ------- 0 3.0 0.0 22 63
- 0.759 3 2 ack 40 ------- 0 3.0 0.0 22 63
r 0.760111 3 2 ack 40 ------- 0 3.0 0.0 21 61
+ 0.760111 2 0 ack 40 ------- 0 3.0 0.0 21 61
- 0.760111 2 0 ack 40 ------- 0 3.0 0.0 21 61
r 0.761271 2 0 ack 40 ------- 0 3.0 0.0 21 61
+ 0.761271 0 2 tcp 1040 ------- 0 0.0 3.0 41 64
- 0.761271 0 2 tcp 1040 ------- 0 0.0 3.0 41 64
r 0.766431 0 2 tcp 1040 ------- 0 0.0 3.0 41 64
+ 0.766431 2 3 tcp 1040 ------- 0 0.0 3.0 41 64
- 0.767489 2 3 tcp 1040 ------- 0 0.0 3.0 25 39
r 0.768244 2 3 tcp 1040 ------- 0 0.0 3.0 23 36
+ 0.768244 3 2 ack 40 ------- 0 3.0 0.0 23 65
- 0.768244 3 2 ack 40 ------- 0 3.0 0.0 23 65
r 0.769356 3 2 ack 40 ------- 0 3.0 0.0 22 63
+ 0.769356 2 0 ack 40 ------- 0 3.0 0.0 22 63
- 0.769356 2 0 ack 40 ------- 0 3.0 0.0 22 63
r 0.770516 2 0 ack 40 ------- 0 3.0 0.0 22 63
+ 0.770516 0 2 tcp 1040 ------- 0 0.0 3.0 42 66
- 0.770516 0 2 tcp 1040 ------- 0 0.0 3.0 42 66
r 0.775676 0 2 tcp 1040 ------- 0 0.0 3.0 42 66
+ 0.775676 2 3 tcp 1040 ------- 0 0.0 3.0 42 66
- 0.776733 2 3 tcp 1040 ------- 0 0.0 3.0 26 40
r 0.777489 2 3 tcp 1040 ------- 0 0.0 3.0 24 37
+ 0.777489 3 2 ack 40 ------- 0 3.0 0.0 24 67
- 0.777489 3 2 ack 40 ------- 0 3.0 0.0 24 67
r 0.7786 3 2 ack 40 ------- 0 3.0 0.0 23 65
+ 0.7786 2 0 ack 40 ------- 0 3.0 0.0 23 65
- 0.7786 2 0 ack 40 ------- 0 3.0 0.0 23 65
r 0.77976 2 0 ack 40 ------- 0 3.0 0.0 23 65
+ 0.77976 0 2 tcp 1040 ------- 0 0.0 3.0 43 68
- 0.77976 0 2 tcp 1040 ------- 0 0.0 3.0 43 68
r 0.78492 0 2 tcp 1040 ------- 0 0.0 3.0 43 68
+ 0.78492 2 3 tcp 1040 ------- 0 0.0 3.0 43 68
- 0.785978 2 3 tcp 1040 ------- 0 0.0 3.0 27 42
r 0.786733 2 3 tcp 1040 ------- 0 0.0 3.0 25 39
+ 0.786733 3 2 ack 40 ------- 0 3.0 0.0 25 69
- 0.786733 3 2 ack 40 ------- 0 3.0 0.0 25 69
r 0.787844 3 2 ack 40 ------- 0 3.0 0.0 24 67
+ 0.787844 2 0 ack 40 ------- 0 3.0 0.0 24 67
- 0.787844 2 0 ack 40 ------- 0 3.0 0.0 24 67
r 0.789004 2 0 ack 40 ------- 0 3.0 0.0 24 67
+ 0.789004 0 2 tcp 1040 ------- 0 0.0 3.0 44 70
- 0.789004 0 2 tcp 1040 ------- 0 0.0 3.0 44 70
r 0.794164 0 2 tcp 1040 ------- 0 0.0 3.0 44 70
+ 0.794164 2 3 tcp 1040 ------- 0 0.0 3.0 44 70
- 0.795222 2 3 tcp 1040 ------- 0 0.0 3.0 28 43
r 0.795978 2 3 tcp 1040 ------- 0 0.0 3.0 26 40
+ 0.795978 3 2 ack 40 ------- 0 3.0 0.0 26 71
- 0.795978 3 2 ack 40 ------- 0 3.0 0.0 26 71
r 0.797089 3 2 ack 40 ------- 0 3.0 0.0 25 69
+ 0.797089 2 0 ack 40 ------- 0 3.0 0.0 25 69
- 0.797089 2 0 ack 40 ------- 0 3.0 0.0 25 69
r 0.798249 2 0 ack 40 ------- 0 3.0 0.0 25 69
+ 0.798249 0 2 tcp 1040 ------- 0 0.0 3.0 45 72
- 0.798249 0 2 tcp 1040 ------- 0 0.0 3.0 45 72
r 0.803409 0 2 tcp 1040 ------- 0 0.0 3.0 45 72
+ 0.803409 2 3 tcp 1040 ------- 0 0.0 3.0 45 72
- 0.804467 2 3 tcp 1040 ------- 0 0.0 3.0 29 45
r 0.805222 2 3 tcp 1040 ------- 0 0.0 3.0 27 42
+ 0.805222 3 2 ack 40 ------- 0 3.0 0.0 27 73
- 0.805222 3 2 ack 40 ------- 0 3.0 0.0 27 73
r 0.806333 3 2 ack 40 ------- 0 3.0 0.0 26 71
+ 0.806333 2 0 ack 40 ------- 0 3.0 0.0 26 71
- 0.806333 2 0 ack 40 ------- 0 3.0 0.0 26 71
r 0.807493 2 0 ack 40 ------- 0 3.0 0.0 26 71
+ 0.807493 0 2 tcp 1040 ------- 0 0.0 3.0 46 74
- 0.807493 0 2 tcp 1040 ------- 0 0.0 3.0 46 74
r 0.812653 0 2 tcp 1040 ------- 0 0.0 3.0 46 74
+ 0.812653 2 3 tcp 1040 ------- 0 0.0 3.0 46 74
- 0.813711 2 3 tcp 1040 ------- 0 0.0 3.0 30 46
r 0.814467 2 3 tcp 1040 ------- 0 0.0 3.0 28 43
+ 0.814467 3 2 ack 40 ------- 0 3.0 0.0 28 75
- 0.814467 3 2 ack 40 ------- 0 3.0 0.0 28 75
r 0.815578 3 2 ack 40 ------- 0 3.0 0.0 27 73
+ 0.815578 2 0 ack 40 ------- 0 3.0 0.0 27 73
- 0.815578 2 0 ack 40 ------- 0 3.0 0.0 27 73
r 0.816738 2 0 ack 40 ------- 0 3.0 0.0 27 73
+ 0.816738 0 2 tcp 1040 ------- 0 0.0 3.0 47 76
- 0.816738 0 2 tcp 1040 ------- 0 0.0 3.0 47 76
r 0.821898 0 2 tcp 1040 ------- 0 0.0 3.0 47 76
+ 0.821898 2 3 tcp 1040 ------- 0 0.0 3.0 47 76
- 0.822956 2 3 tcp 1040 ------- 0 0.0 3.0 31 48
r 0.823711 2 3 tcp 1040 ------- 0 0.0 3.0 29 45
+ 0.823711 3 2 ack 40 ------- 0 3.0 0.0 29 77
- 0.823711 3 2 ack 40 ------- 0 3.0 0.0 29 77
r 0.824822 3 2 ack 40 ------- 0 3.0 0.0 28 75
+ 0.824822 2 0 ack 40 ------- 0 3.0 0.0 28 75
- 0.824822 2 0 ack 40 ------- 0 3.0 0.0 28 75
r 0.825982 2 0 ack 40 ------- 0 3.0 0.0 28 75
+ 0.825982 0 2 tcp 1040 ------- 0 0.0 3.0 48 78
- 0.825982 0 2 tcp 1040 ------- 0 0.0 3.0 48 78
r 0.831142 0 2 tcp 1040 ------- 0 0.0 3.0 48 78
+ 0.831142 2 3 tcp 1040 ------- 0 0.0 3.0 48 78
- 0.8322 2 3 tcp 1040 ------- 0 0.0 3.0 32 49
r 0.832956 2 3 tcp 1040 ------- 0 0.0 3.0 30 46
+ 0.832956 3 2 ack 40 ------- 0 3.0 0.0 30 79
- 0.832956 3 2 ack 40 ------- 0 3.0 0.0 30 79
r 0.834067 3 2 ack 40 ------- 0 3.0 0.0 29 77
+ 0.834067 2 0 ack 40 ------- 0 3.0 0.0 29 77
- 0.834067 2 0 ack 40 ------- 0 3.0 0.0 29 77
r 0.835227 2 0 ack 40 ------- 0 3.0 0.0 29 77
+ 0.835227 0 2 tcp 1040 ------- 0 0.0 3.0 49 80
- 0.835227 0 2 tcp 1040 ------- 0 0.0 3.0 49 80
r 0.840387 0 2 tcp 1040 ------- 0 0.0 3.0 49 80
+ 0.840387 2 3 tcp 1040 ------- 0 0.0 3.0 49 80
- 0.841444 2 3 tcp 1040 ------- 0 0.0 3.0 33 51
r 0.8422 2 3 tcp 1040 ------- 0 0.0 3.0 31 48
+ 0.8422 3 2 ack 40 ------- 0 3.0 0.0 31 81
- 0.8422 3 2 ack 40 ------- 0 3.0 0.0 31 81
r 0.843311 3 2 ack 40 ------- 0 3.0 0.0 30 79
+ 0.843311 2 0 ack 40 ------- 0 3.0 0.0 30 79
- 0.843311 2 0 ack 40 ------- 0 3.0 0.0 30 79
r 0.844471 2 0 ack 40 ------- 0 3.0 0.0 30 79
+ 0.844471 0 2 tcp 1040 ------- 0 0.0 3.0 50 82
- 0.844471 0 2 tcp 1040 ------- 0 0.0 3.0 50 82
r 0.849631 0 2 tcp 1040 ------- 0 0.0 3.0 50 82
+ 0.849631 2 3 tcp 1040 ------- 0 0.0 3.0 50 82
- 0.850689 2 3 tcp 1040 ------- 0 0.0 3.0 34 52
r 0.851444 2 3 tcp 1040 ------- 0 0.0 3.0 32 49
+ 0.851444 3 2 ack 40 ------- 0 3.0 0.0 32 83
- 0.851444 3 2 ack 40 ------- 0 3.0 0.0 32 83
r 0.852556 3 2 ack 40 ------- 0 3.0 0.0 31 81
+ 0.852556 2 0 ack 40 ------- 0 3.0 0.0 31 81
- 0.852556 2 0 ack 40 ------- 0 3.0 0.0 31 81
r 0.853716 2 0 ack 40 ------- 0 3.0 0.0 31 81
+ 0.853716 0 2 tcp 1040 ------- 0 0.0 3.0 51 84
- 0.853716 0 2 tcp 1040 ------- 0 0.0 3.0 51 84
r 0.858876 0 2 tcp 1040 ------- 0 0.0 3.0 51 84
+ 0.858876 2 3 tcp 1040 ------- 0 0.0 3.0 51 84
- 0.859933 2 3 tcp 1040 ------- 0 0.0 3.0 35 54
r 0.860689 2 3 tcp 1040 ------- 0 0.0 3.0 33 51
+ 0.860689 3 2 ack 40 ------- 0 3.0 0.0 33 85
- 0.860689 3 2 ack 40 ------- 0 3.0 0.0 33 85
r 0.8618 3 2 ack 40 ------- 0 3.0 0.0 32 83
+ 0.8618 2 0 ack 40 ------- 0 3.0 0.0 32 83
- 0.8618 2 0 ack 40 ------- 0 3.0 0.0 32 83
r 0.86296 2 0 ack 40 ------- 0 3.0 0.0 32 83
+ 0.86296 0 2 tcp 1040 ------- 0 0.0 3.0 52 86
- 0.86296 0 2 tcp 1040 ------- 0 0.0 3.0 52 86
r 0.86812 0 2 tcp 1040 ------- 0 0.0 3.0 52 86
+ 0.86812 2 3 tcp 1040 ------- 0 0.0 3.0 52 86
- 0.869178 2 3 tcp 1040 ------- 0 0.0 3.0 36 55
r 0.869933 2 3 tcp 1040 ------- 0 0.0 3.0 34 52
+ 0.869933 3 2 ack 40 ------- 0 3.0 0.0 34 87
- 0.869933 3 2 ack 40 ------- 0 3.0 0.0 34 87
r 0.871044 3 2 ack 40 ------- 0 3.0 0.0 33 85
+ 0.871044 2 0 ack 40 ------- 0 3.0 0.0 33 85
- 0.871044 2 0 ack 40 ------- 0 3.0 0.0 33 85
r 0.872204 2 0 ack 40 ------- 0 3.0 0.0 33 85
+ 0.872204 0 2 tcp 1040 ------- 0 0.0 3.0 53 88
- 0.872204 0 2 tcp 1040 ------- 0 0.0 3.0 53 88
r 0.877364 0 2 tcp 1040 ------- 0 0.0 3.0 53 88
+ 0.877364 2 3 tcp 1040 ------- 0 0.0 3.0 53 88
- 0.878422 2 3 tcp 1040 ------- 0 0.0 3.0 37 57
r 0.879178 2 3 tcp 1040 ------- 0 0.0 3.0 35 54
+ 0.879178 3 2 ack 40 ------- 0 3.0 0.0 35 89
- 0.879178 3 2 ack 40 ------- 0 3.0 0.0 35 89
r 0.880289 3 2 ack 40 ------- 0 3.0 0.0 34 87
+ 0.880289 2 0 ack 40 ------- 0 3.0 0.0 34 87
- 0.880289 2 0 ack 40 ------- 0 3.0 0.0 34 87
r 0.881449 2 0 ack 40 ------- 0 3.0 0.0 34 87
+ 0.881449 0 2 tcp 1040 ------- 0 0.0 3.0 54 90
- 0.881449 0 2 tcp 1040 ------- 0 0.0 3.0 54 90
r 0.886609 0 2 tcp 1040 ------- 0 0.0 3.0 54 90
+ 0.886609 2 3 tcp 1040 ------- 0 0.0 3.0 54 90
- 0.887667 2 3 tcp 1040 ------- 0 0.0 3.0 38 58
r 0.888422 2 3 tcp 1040 ------- 0 0.0 3.0 36 55
+ 0.888422 3 2 ack 40 ------- 0 3.0 0.0 36 91
- 0.888422 3 2 ack 40 ------- 0 3.0 0.0 36 91
r 0.889533 3 2 ack 40 ------- 0 3.0 0.0 35 89
+ 0.889533 2 0 ack 40 ------- 0 3.0 0.0 35 89
- 0.889533 2 0 ack 40 ------- 0 3.0 0.0 35 89
r 0.890693 2 0 ack 40 ------- 0 3.0 0.0 35 89
+ 0.890693 0 2 tcp 1040 ------- 0 0.0 3.0 55 92
- 0.890693 0 2 tcp 1040 ------- 0 0.0 3.0 55 92
r 0.895853 0 2 tcp 1040 ------- 0 0.0 3.0 55 92
+ 0.895853 2 3 tcp 1040 ------- 0 0.0 3.0 55 92
- 0.896911 2 3 tcp 1040 ------- 0 0.0 3.0 39 60
r 0.897667 2 3 tcp 1040 ------- 0 0.0 3.0 37 57
+ 0.897667 3 2 ack 40 ------- 0 3.0 0.0 37 93
- 0.897667 3 2 ack 40 ------- 0 3.0 0.0 37 93
r 0.898778 3 2 ack 40 ------- 0 3.0 0.0 36 91
+ 0.898778 2 0 ack 40 ------- 0 3.0 0.0 36 91
- 0.898778 2 0 ack 40 ------- 0 3.0 0.0 36 91
r 0.899938 2 0 ack 40 ------- 0 3.0 0.0 36 91
+ 0.899938 0 2 tcp 1040 ------- 0 0.0 3.0 56 94
- 0.899938 0 2 tcp 1040 ------- 0 0.0 3.0 56 94
r 0.905098 0 2 tcp 1040 ------- 0 0.0 3.0 56 94
+ 0.905098 2 3 tcp 1040 ------- 0 0.0 3.0 56 94
- 0.906156 2 3 tcp 1040 ------- 0 0.0 3.0 40 62
r 0.906911 2 3 tcp 1040 ------- 0 0.0 3.0 38 58
+ 0.906911 3 2 ack 40 ------- 0 3.0 0.0 38 95
- 0.906911 3 2 ack 40 ------- 0 3.0 0.0 38 95
r 0.908022 3 2 ack 40 ------- 0 3.0 0.0 37 93
+ 0.908022 2 0 ack 40 ------- 0 3.0 0.0 37 93
- 0.908022 2 0 ack 40 ------- 0 3.0 0.0 37 93
r 0.909182 2 0 ack 40 ------- 0 3.0 0.0 37 93
+ 0.909182 0 2 tcp 1040 ------- 0 0.0 3.0 57 96
- 0.909182 0 2 tcp 1040 ------- 0 0.0 3.0 57 96
r 0.914342 0 2 tcp 1040 ------- 0 0.0 3.0 57 96
+ 0.914342 2 3 tcp 1040 ------- 0 0.0 3.0 57 96
- 0.9154 2 3 tcp 1040 ------- 0 0.0 3.0 41 64
r 0.916156 2 3 tcp 1040 ------- 0 0.0 3.0 39 60
+ 0.916156 3 2 ack 40 ------- 0 3.0 0.0 39 97
- 0.916156 3 2 ack 40 ------- 0 3.0 0.0 39 97
r 0.917267 3 2 ack 40 ------- 0 3.0 0.0 38 95
+ 0.917267 2 0 ack 40 ------- 0 3.0 0.0 38 95
- 0.917267 2 0 ack 40 ------- 0 3.0 0.0 38 95
r 0.918427 2 0 ack 40 ------- 0 3.0 0.0 38 95
+ 0.918427 0 2 tcp 1040 ------- 0 0.0 3.0 58 98
- 0.918427 0 2 tcp 1040 ------- 0 0.0 3.0 58 98
r 0.923587 0 2 tcp 1040 ------- 0 0.0 3.0 58 98
+ 0.923587 2 3 tcp 1040 ------- 0 0.0 3.0 58 98
- 0.924644 2 3 tcp 1040 ------- 0 0.0 3.0 42 66
r 0.9254 2 3 tcp 1040 ------- 0 0.0 3.0 40 62
+ 0.9254 3 2 ack 40 ------- 0 3.0 0.0 40 99
- 0.9254 3 2 ack 40 ------- 0 3.0 0.0 40 99
r 0.926511 3 2 ack 40 ------- 0 3.0 0.0 39 97
+ 0.926511 2 0 ack 40 ------- 0 3.0 0.0 39 97
- 0.926511 2 0 ack 40 ------- 0 3.0 0.0 39 97
r 0.927671 2 0 ack 40 ------- 0 3.0 0.0 39 97
+ 0.927671 0 2 tcp 1040 ------- 0 0.0 3.0 59 100
- 0.927671 0 2 tcp 1040 ------- 0 0.0 3.0 59 100
r 0.932831 0 2 tcp 1040 ------- 0 0.0 3.0 59 100
+ 0.932831 2 3 tcp 1040 ------- 0 0.0 3.0 59 100
- 0.933889 2 3 tcp 1040 ------- 0 0.0 3.0 43 68
r 0.934644 2 3 tcp 1040 ------- 0 0.0 3.0 41 64
+ 0.934644 3 2 ack 40 ------- 0 3.0 0.0 41 101
- 0.934644 3 2 ack 40 ------- 0 3.0 0.0 41 101
r 0.935756 3 2 ack 40 ------- 0 3.0 0.0 40 99
+ 0.935756 2 0 ack 40 ------- 0 3.0 0.0 40 99
- 0.935756 2 0 ack 40 ------- 0 3.0 0.0 40 99
r 0.936916 2 0 ack 40 ------- 0 3.0 0.0 40 99
+ 0.936916 0 2 tcp 1040 ------- 0 0.0 3.0 60 102
- 0.936916 0 2 tcp 1040 ------- 0 0.0 3.0 60 102
r 0.942076 0 2 tcp 1040 ------- 0 0.0 3.0 60 102
+ 0.942076 2 3 tcp 1040 ------- 0 0.0 3.0 60 102
- 0.943133 2 3 tcp 1040 ------- 0 0.0 3.0 44 70
r 0.943889 2 3 tcp 1040 ------- 0 0.0 3.0 42 66
+ 0.943889 3 2 ack 40 ------- 0 3.0 0.0 42 103
- 0.943889 3 2 ack 40 ------- 0 3.0 0.0 42 103
r 0.945 3 2 ack 40 ------- 0 3.0 0.0 41 101
+ 0.945 2 0 ack 40 ------- 0 3.0 0.0 41 101
- 0.945 2 0 ack 40 ------- 0 3.0 0.0 41 101
r 0.94616 2 0 ack 40 ------- 0 3.0 0.0 41 101
+ 0.94616 0 2 tcp 1040 ------- 0 0.0 3.0 61 104
- 0.94616 0 2 tcp 1040 ------- 0 0.0 3.0 61 104
r 0.95132 0 2 tcp 1040 ------- 0 0.0 3.0 61 104
+ 0.95132 2 3 tcp 1040 ------- 0 0.0 3.0 61 104
- 0.952378 2 3 tcp 1040 ------- 0 0.0 3.0 45 72
r 0.953133 2 3 tcp 1040 ------- 0 0.0 3.0 43 68
+ 0.953133 3 2 ack 40 ------- 0 3.0 0.0 43 105
- 0.953133 3 2 ack 40 ------- 0 3.0 0.0 43 105
r 0.954244 3 2 ack 40 ------- 0 3.0 0.0 42 103
+ 0.954244 2 0 ack 40 ------- 0 3.0 0.0 42 103
- 0.954244 2 0 ack 40 ------- 0 3.0 0.0 42 103
r 0.955404 2 0 ack 40 ------- 0 3.0 0.0 42 103
+ 0.955404 0 2 tcp 1040 ------- 0 0.0 3.0 62 106
- 0.955404 0 2 tcp 1040 ------- 0 0.0 3.0 62 106
r 0.960564 0 2 tcp 1040 ------- 0 0.0 3.0 62 106
+ 0.960564 2 3 tcp 1040 ------- 0 0.0 3.0 62 106
- 0.961622 2 3 tcp 1040 ------- 0 0.0 3.0 46 74
r 0.962378 2 3 tcp 1040 ------- 0 0.0 3.0 44 70
+ 0.962378 3 2 ack 40 ------- 0 3.0 0.0 44 107
- 0.962378 3 2 ack 40 ------- 0 3.0 0.0 44 107
r 0.963489 3 2 ack 40 ------- 0 3.0 0.0 43 105
+ 0.963489 2 0 ack 40 ------- 0 3.0 0.0 43 105
- 0.963489 2 0 ack 40 ------- 0 3.0 0.0 43 105
r 0.964649 2 0 ack 40 ------- 0 3.0 0.0 43 105
+ 0.964649 0 2 tcp 1040 ------- 0 0.0 3.0 63 108
- 0.964649 0 2 tcp 1040 ------- 0 0.0 3.0 63 108
r 0.969809 0 2 tcp 1040 ------- 0 0.0 3.0 63 108
+ 0.969809 2 3 tcp 1040 ------- 0 0.0 3.0 63 108
- 0.970867 2 3 tcp 1040 ------- 0 0.0 3.0 47 76
r 0.971622 2 3 tcp 1040 ------- 0 0.0 3.0 45 72
+ 0.971622 3 2 ack 40 ------- 0 3.0 0.0 45 109
- 0.971622 3 2 ack 40 ------- 0 3.0 0.0 45 109
r 0.972733 3 2 ack 40 ------- 0 3.0 0.0 44 107
+ 0.972733 2 0 ack 40 ------- 0 3.0 0.0 44 107
- 0.972733 2 0 ack 40 ------- 0 3.0 0.0 44 107
r 0.973893 2 0 ack 40 ------- 0 3.0 0.0 44 107
+ 0.973893 0 2 tcp 1040 ------- 0 0.0 3.0 64 110
- 0.973893 0 2 tcp 1040 ------- 0 0.0 3.0 64 110
r 0.979053 0 2 tcp 1040 ------- 0 0.0 3.0 64 110
+ 0.979053 2 3 tcp 1040 ------- 0 0.0 3.0 64 110
- 0.980111 2 3 tcp 1040 ------- 0 0.0 3.0 48 78
r 0.980867 2 3 tcp 1040 ------- 0 0.0 3.0 46 74
+ 0.980867 3 2 ack 40 ------- 0 3.0 0.0 46 111
- 0.980867 3 2 ack 40 ------- 0 3.0 0.0 46 111
r 0.981978 3 2 ack 40 ------- 0 3.0 0.0 45 109
+ 0.981978 2 0 ack 40 ------- 0 3.0 0.0 45 109
- 0.981978 2 0 ack 40 ------- 0 3.0 0.0 45 109
r 0.983138 2 0 ack 40 ------- 0 3.0 0.0 45 109
+ 0.983138 0 2 tcp 1040 ------- 0 0.0 3.0 65 112
- 0.983138 0 2 tcp 1040 ------- 0 0.0 3.0 65 112
r 0.988298 0 2 tcp 1040 ------- 0 0.0 3.0 65 112
+ 0.988298 2 3 tcp 1040 ------- 0 0.0 3.0 65 112
- 0.989356 2 3 tcp 1040 ------- 0 0.0 3.0 49 80
r 0.990111 2 3 tcp 1040 ------- 0 0.0 3.0 47 76
+ 0.990111 3 2 ack 40 ------- 0 3.0 0.0 47 113
- 0.990111 3 2 ack 40 ------- 0 3.0 0.0 47 113